 *******************************************************************************
 **                                                                           **
 **                              MOPAC v23.2.5                                **
 **                                                                           **
 *******************************************************************************
 ** MOPAC's Digital Object Identifier: https://doi.org/10.5281/zenodo.6511958 **
 **                                                                           **
 ** Please cite the open-source release paper for use of this MOPAC version:  **
 ** J. E. Moussa and J. J. P. Stewart (2026)                                  **
 ** MOPAC: An open-source semiempirical molecular orbital program             **
 ** J. Open Source Softw., 11(119), 8025, https://doi.org/10.21105/joss.08025 **
 *******************************************************************************

                              PM7 CALCULATION RESULTS

 *******************************************************************************
 *  CALCULATION DONE: (MAX THREADS = 1)              Mon Jul 20 22:24:54 2026  *
 *  PM7        - The PM7 Hamiltonian to be used
 *
 *
 *
 *                 CHARGE ON SYSTEM = 0
 *
 *
 *
 *  XYZ        - CARTESIAN COORDINATE SYSTEM TO BE USED
 *  1SCF       - DO 1 SCF AND THEN STOP 
 *  THREADS=1  - MULTI-THREADING NOT USED
 *  T=         - A TIME OF 172800.0 SECONDS REQUESTED
 *  DUMP=N     - RESTART FILE WRITTEN EVERY 7200.0 SECONDS REQUESTED
 *  SCFCRT     - DEFAULT SCF CRITERION REPLACED BY   0.100E-20
 *  AUX        - OUTPUT AUXILIARY INFORMATION
 *******************************************************************************
scfcrt=1.D-21 aux(precision=14 comp xp xs xw) PM7 THREADS=1 charge=0 1SCF XYZ
 Comment line 1
 Comment line 2
   ATOM   CHEMICAL          X               Y               Z
  NUMBER   SYMBOL      (ANGSTROMS)     (ANGSTROMS)     (ANGSTROMS)

     1       C         -0.00005630  *  -0.70607634  *  -0.00000000  *
     2       C         -0.00003690  *   0.70587391  *  -0.00000000  *
     3       C          1.24074583  *   1.40138317  *  -0.00000000  *
     4       C          2.42378680  *   0.70913682  *   0.00000000  *
     5       C          2.42381619  *  -0.70883405  *   0.00000000  *
     6       C          1.24096848  *  -1.40163512  *  -0.00000000  *
     7       C         -1.24099756  *  -1.40174150  *  -0.00000000  *
     8       C         -2.42376239  *  -0.70881548  *   0.00000000  *
     9       C         -2.42371878  *   0.70909206  *   0.00000000  *
    10       C         -1.24077462  *   1.40155637  *  -0.00000000  *
    11       H         -1.22998751  *  -2.48997703  *  -0.00000000  *
    12       H         -3.37751354  *  -1.23332698  *   0.00000000  *
    13       H         -3.37730958  *   1.23372919  *   0.00000000  *
    14       H         -1.22956474  *   2.48993668  *  -0.00000000  *
    15       H          1.22500951  *  -2.48997719  *  -0.00000000  *
    16       H          1.22959636  *   2.48995763  *   0.00500000  *
    17       H          3.37766545  *  -1.23330474  *   0.00000000  *
    18       H          3.37745221  *   1.23367877  *   0.00000000  *



          CARTESIAN COORDINATES 

    NO.       ATOM           X           Y           Z

     1         C         -0.0001     -0.7061     -0.0000
     2         C         -0.0000      0.7059     -0.0000
     3         C          1.2407      1.4014     -0.0000
     4         C          2.4238      0.7091      0.0000
     5         C          2.4238     -0.7088      0.0000
     6         C          1.2410     -1.4016     -0.0000
     7         C         -1.2410     -1.4017     -0.0000
     8         C         -2.4238     -0.7088      0.0000
     9         C         -2.4237      0.7091      0.0000
    10         C         -1.2408      1.4016     -0.0000
    11         H         -1.2300     -2.4900     -0.0000
    12         H         -3.3775     -1.2333      0.0000
    13         H         -3.3773      1.2337      0.0000
    14         H         -1.2296      2.4899     -0.0000
    15         H          1.2250     -2.4900     -0.0000
    16         H          1.2296      2.4900      0.0050
    17         H          3.3777     -1.2333      0.0000
    18         H          3.3775      1.2337      0.0000

 General Reference for PM7:
 "Optimization of Parameters for Semiempirical Methods VI: More Modifications to the 
 NDDO Approximations and Re-optimization of Parameters", J. J. P. Stewart, J. Mol. Mod., 1:32, 19 (2013)
 https://link.springer.com/article/10.1007/s00894-012-1667-x

           Empirical Formula: C10 H8  =    18 atoms



      MOLECULAR POINT GROUP   :   D2h 


      RHF CALCULATION, NO. OF DOUBLY OCCUPIED LEVELS = 24

  SCF CRITERION =    0.1000E-20


   THERE IS A RISK OF INFINITE LOOPING WITH THE SCFCRT LESS THAN 1.D-12

 -------------------------------------------------------------------------------
 scfcrt=1.D-21 aux(precision=14 comp xp xs xw) PM7 THREADS=1 charge=0 1SCF XYZ
 Comment line 1
 Comment line 2


     1SCF WAS SPECIFIED, SO BFGS WAS NOT USED                 
     SCF FIELD WAS ACHIEVED                                   


                              PM7 CALCULATION
                                                       MOPAC v23.2.5 Linux
                                                       Mon Jul 20 22:25:00 2026




          FINAL HEAT OF FORMATION =         39.71607 KCAL/MOL =     166.17202 KJ/MOL


          COSMO AREA              =        166.64 SQUARE ANGSTROMS
          COSMO VOLUME            =        165.48 CUBIC ANGSTROMS

          IONIZATION POTENTIAL    =          8.952254 EV
          HOMO LUMO ENERGIES (EV) =         -8.952 -0.547
          NO. OF FILLED LEVELS    =         24
          MOLECULAR WEIGHT        =        128.1732         POINT GROUP:  D2h 

          MOLECULAR DIMENSIONS (Angstroms)

            Atom       Atom       Distance
            H    17    H    13     7.19138
            H    16    H    11     5.52150
            H    18    H    16     0.00460


          SCF CALCULATIONS        =          1

          WALL-CLOCK TIME         =      6.078 SECONDS
          COMPUTATION TIME        =      0.066 SECONDS




   ATOM   CHEMICAL          X               Y               Z
  NUMBER   SYMBOL      (ANGSTROMS)     (ANGSTROMS)     (ANGSTROMS)

     1       C         -0.00005630  *  -0.70607634  *  -0.00000000  *
     2       C         -0.00003690  *   0.70587391  *  -0.00000000  *
     3       C          1.24074583  *   1.40138317  *  -0.00000000  *
     4       C          2.42378680  *   0.70913682  *   0.00000000  *
     5       C          2.42381619  *  -0.70883405  *   0.00000000  *
     6       C          1.24096848  *  -1.40163512  *  -0.00000000  *
     7       C         -1.24099756  *  -1.40174150  *  -0.00000000  *
     8       C         -2.42376239  *  -0.70881548  *   0.00000000  *
     9       C         -2.42371878  *   0.70909206  *   0.00000000  *
    10       C         -1.24077462  *   1.40155637  *  -0.00000000  *
    11       H         -1.22998751  *  -2.48997703  *  -0.00000000  *
    12       H         -3.37751354  *  -1.23332698  *   0.00000000  *
    13       H         -3.37730958  *   1.23372919  *   0.00000000  *
    14       H         -1.22956474  *   2.48993668  *  -0.00000000  *
    15       H          1.22500951  *  -2.48997719  *  -0.00000000  *
    16       H          1.22959636  *   2.48995763  *   0.00500000  *
    17       H          3.37766545  *  -1.23330474  *   0.00000000  *
    18       H          3.37745221  *   1.23367877  *   0.00000000  *

                             CARTESIAN COORDINATES

   1    C       -0.000056297    -0.706076338    -0.000000003
   2    C       -0.000036902     0.705873911    -0.000000003
   3    C        1.240745829     1.401383173    -0.000000001
   4    C        2.423786798     0.709136816     0.000000002
   5    C        2.423816191    -0.708834050     0.000000003
   6    C        1.240968476    -1.401635124    -0.000000001
   7    C       -1.240997556    -1.401741497    -0.000000001
   8    C       -2.423762386    -0.708815485     0.000000002
   9    C       -2.423718775     0.709092064     0.000000003
  10    C       -1.240774618     1.401556368    -0.000000001
  11    H       -1.229987506    -2.489977026    -0.000000001
  12    H       -3.377513537    -1.233326982     0.000000005
  13    H       -3.377309583     1.233729190     0.000000005
  14    H       -1.229564744     2.489936680    -0.000000002
  15    H        1.225009514    -2.489977186    -0.000000001
  16    H        1.229596363     2.489957631     0.004999999
  17    H        3.377665452    -1.233304744     0.000000005
  18    H        3.377452207     1.233678766     0.000000005


           Empirical Formula: C10 H8  =    18 atoms



      MOLECULAR POINT GROUP   :   D2h 


                  EIGENVALUES  
 -31.05019 -29.26630 -26.91977 -25.47164 -24.81891 -21.53041 -21.20238 -20.91278
 -17.62485 -17.00369 -16.75045 -15.04501 -14.97608 -14.18992 -14.18509 -14.12843
 -13.53290 -12.65095 -12.12244 -11.81746 -11.58983 -10.77385  -9.46904  -8.95225
  -0.54738  -0.07105   0.86981   1.75618   2.89314   3.95547   3.96091   4.63399
   4.82859   4.87210   4.95614   5.06221   5.10950   5.42893   5.71939   5.72773
   5.91756   5.93147   6.09403   6.11513   6.11801   6.14848   6.26046   6.28457


              NET ATOMIC CHARGES AND DIPOLE CONTRIBUTIONS

  ATOM NO.   TYPE          CHARGE      No. of ELECS.   s-Pop       p-Pop       
    1          C          -0.007910        4.0079     1.06337     2.94454
    2          C          -0.007780        4.0078     1.06323     2.94455
    3          C          -0.155106        4.1551     1.08529     3.06981
    4          C          -0.146139        4.1461     1.08319     3.06295
    5          C          -0.145877        4.1459     1.08317     3.06270
    6          C          -0.155129        4.1551     1.08535     3.06978
    7          C          -0.155170        4.1552     1.08531     3.06986
    8          C          -0.146061        4.1461     1.08320     3.06286
    9          C          -0.146155        4.1462     1.08318     3.06298
   10          C          -0.155059        4.1551     1.08529     3.06977
   11          H           0.153313        0.8467     0.84669
   12          H           0.151734        0.8483     0.84827
   13          H           0.151747        0.8483     0.84825
   14          H           0.153341        0.8467     0.84666
   15          H           0.153363        0.8466     0.84664
   16          H           0.153360        0.8466     0.84664
   17          H           0.151764        0.8482     0.84824
   18          H           0.151763        0.8482     0.84824
 DIPOLE           X         Y         Z       TOTAL
 POINT-CHG.    -0.000     0.001     0.004     0.004
 HYBRID        -0.002     0.000     0.000     0.002
 SUM           -0.002     0.001     0.004     0.004


          ATOMIC ORBITAL ELECTRON POPULATIONS

     Atom    s        px        py        pz   
    1  C   1.06337   0.97438   0.97994   0.99021
    2  C   1.06323   0.97432   0.97994   0.99029
    3  C   1.08529   0.98490   1.07956   1.00536
    4  C   1.08319   1.05641   1.00700   0.99954
    5  C   1.08317   1.05638   1.00694   0.99938
    6  C   1.08535   0.98484   1.07949   1.00545
    7  C   1.08531   0.98491   1.07946   1.00549
    8  C   1.08320   1.05643   1.00700   0.99942
    9  C   1.08318   1.05643   1.00702   0.99953
   10  C   1.08529   0.98491   1.07952   1.00533
   11  H   0.84669
   12  H   0.84827
   13  H   0.84825
   14  H   0.84666
   15  H   0.84664
   16  H   0.84664
   17  H   0.84824
   18  H   0.84824

 **********************
 *                    *
 * JOB ENDED NORMALLY *
 *                    *
 **********************



 TOTAL JOB TIME:             6.55 SECONDS

 == MOPAC DONE ==
