 argument  1 = h2o.nw
                                         
                                         


             Northwest Computational Chemistry Package (NWChem) 7.3.1
             --------------------------------------------------------


                    Environmental Molecular Sciences Laboratory
                       Pacific Northwest National Laboratory
                                Richland, WA 99352

                              Copyright (c) 1994-2025
                       Pacific Northwest National Laboratory
                            Battelle Memorial Institute

             NWChem is an open-source computational chemistry package
                        distributed under the terms of the
                      Educational Community License (ECL) 2.0
             A copy of the license is included with this distribution
                              in the LICENSE.TXT file

                                  ACKNOWLEDGMENT
                                  --------------

            This software and its documentation were developed at the
            EMSL at Pacific Northwest National Laboratory, a multiprogram
            national laboratory, operated for the U.S. Department of Energy
            by Battelle under Contract Number DE-AC05-76RL01830. Support
            for this work was provided by the Department of Energy Office
            of Biological and Environmental Research, Office of Basic
            Energy Sciences, and the Office of Advanced Scientific Computing.


           Job information
           ---------------

    hostname        = 69c0901f0493
    program         = nwchem
    date            = Wed Jun  3 20:49:35 2026

    compiled        = Tue_Jun_02_19:26:10_2026
    source          = /opt/nwchem
    nwchem branch   = 7.3.1
    nwchem revision = v7.2.0-beta1-1858-gb28f38abbf
    ga revision     = 5.9.2
    use scalapack   = T
    input           = h2o.nw
    prefix          = h2o_freq.
    data base       = ./h2o_freq.db
    status          = startup
    nproc           =        1
    time left       =     -1s



           Memory information
           ------------------

    heap     =     26214400 doubles =      200.0 Mbytes
    stack    =     26214397 doubles =      200.0 Mbytes
    global   =     52428800 doubles =      400.0 Mbytes (distinct from heap & stack)
    total    =    104857597 doubles =      800.0 Mbytes
    verify   = yes
    hardfail = no 


           Directory information
           ---------------------

  0 permanent = .
  0 scratch   = .




                                NWChem Input Module
                                -------------------


                    H2O - STO-3G optimization + HF frequencies
                    ------------------------------------------

 Scaling coordinates for geometry "geometry" by  1.889725989
 (inverse scale =  0.529177249)

 C2V symmetry detected

          ------
          auto-z
          ------
  no constraints, skipping    0.0000000000000000     
  no constraints, skipping    0.0000000000000000     


                             Geometry "geometry" -> ""
                             -------------------------

 Output coordinates in angstroms (scale by  1.889725989 to convert to a.u.)

  No.       Tag          Charge          X              Y              Z
 ---- ---------------- ---------- -------------- -------------- --------------
    1 O                    8.0000     0.00000000     0.00000000    -0.14142136
    2 H                    1.0000     0.70710678     0.00000000     0.56568542
    3 H                    1.0000    -0.70710678     0.00000000     0.56568542

      Atomic Mass 
      ----------- 

      O                 15.994910
      H                  1.007825


 Effective nuclear repulsion energy (a.u.)       8.8410208052

            Nuclear Dipole moment (a.u.) 
            ----------------------------
        X                 Y               Z
 ---------------- ---------------- ----------------
     0.0000000000     0.0000000000     0.0000000000

      Symmetry information
      --------------------

 Group name             C2v       
 Group number             16
 Group order               4
 No. of unique centers     2

      Symmetry unique atoms

     1    2



                                Z-matrix (autoz)
                                -------- 

 Units are Angstrom for bonds and degrees for angles

      Type          Name      I     J     K     L     M      Value
      ----------- --------  ----- ----- ----- ----- ----- ----------
    1 Stretch                  1     2                       1.00000
    2 Stretch                  1     3                       1.00000
    3 Bend                     2     1     3                90.00000


            XYZ format geometry
            -------------------
     3
 geometry
 O                     0.00000000     0.00000000    -0.14142136
 H                     0.70710678     0.00000000     0.56568542
 H                    -0.70710678     0.00000000     0.56568542

 ==============================================================================
                                internuclear distances
 ------------------------------------------------------------------------------
       center one      |      center two      | atomic units |  angstroms
 ------------------------------------------------------------------------------
    2 H                |   1 O                |     1.88973  |     1.00000
    3 H                |   1 O                |     1.88973  |     1.00000
 ------------------------------------------------------------------------------
                         number of included internuclear distances:          2
 ==============================================================================



 ==============================================================================
                                 internuclear angles
 ------------------------------------------------------------------------------
        center 1       |       center 2       |       center 3       |  degrees
 ------------------------------------------------------------------------------
    2 H                |   1 O                |   3 H                |    90.00
 ------------------------------------------------------------------------------
                            number of included internuclear angles:          1
 ==============================================================================



                      Basis "ao basis" -> "" (cartesian)
                      -----
  H (Hydrogen)
  ------------
            Exponent  Coefficients 
       -------------- ---------------------------------------------------------
  1 S  3.42525091E+00  0.154329
  1 S  6.23913730E-01  0.535328
  1 S  1.68855400E-01  0.444635

  O (Oxygen)
  ----------
            Exponent  Coefficients 
       -------------- ---------------------------------------------------------
  1 S  1.30709320E+02  0.154329
  1 S  2.38088610E+01  0.535328
  1 S  6.44360830E+00  0.444635

  2 S  5.03315130E+00 -0.099967
  2 S  1.16959610E+00  0.399513
  2 S  3.80389000E-01  0.700115

  3 P  5.03315130E+00  0.155916
  3 P  1.16959610E+00  0.607684
  3 P  3.80389000E-01  0.391957



 Summary of "ao basis" -> "" (cartesian)
 ------------------------------------------------------------------------------
       Tag                 Description            Shells   Functions and Types
 ---------------- ------------------------------  ------  ---------------------
 H                           sto-3g                  1        1   1s
 O                           sto-3g                  3        5   2s1p




                           NWChem Geometry Optimization
                           ----------------------------




                    H2O - STO-3G optimization + HF frequencies


  no constraints, skipping    0.0000000000000000     
 maximum gradient threshold         (gmax) =   0.000450
 rms gradient threshold             (grms) =   0.000300
 maximum cartesian step threshold   (xmax) =   0.001800
 rms cartesian step threshold       (xrms) =   0.001200
 fixed trust radius                (trust) =   0.300000
 maximum step size to saddle      (sadstp) =   0.100000
 energy precision                  (eprec) =   1.0D-07
 maximum number of steps          (nptopt) =   40
 initial hessian option           (inhess) =    0
 line search option               (linopt) =    1
 hessian update option            (modupd) =    1
 saddle point option              (modsad) =    0
 initial eigen-mode to follow     (moddir) =    0
 initial variable to follow       (vardir) =    0
 follow first negative mode     (firstneg) =    T
 apply conjugacy                    (opcg) =    F
 source of zmatrix                         =   autoz   


          -------------------
          Energy Minimization
          -------------------


 Names of Z-matrix variables 
    1              2              3         

 Variables with the same non-blank name are constrained to be equal


 Using diagonal initial Hessian 
 Scaling for Hessian diagonals: bonds = 1.00  angles = 0.25  torsions = 0.10

          --------
          Step   0
          --------


                         Geometry "geometry" -> "geometry"
                         ---------------------------------

 Output coordinates in angstroms (scale by  1.889725989 to convert to a.u.)

  No.       Tag          Charge          X              Y              Z
 ---- ---------------- ---------- -------------- -------------- --------------
    1 O                    8.0000     0.00000000     0.00000000    -0.14142136
    2 H                    1.0000     0.70710678     0.00000000     0.56568542
    3 H                    1.0000    -0.70710678     0.00000000     0.56568542

      Atomic Mass 
      ----------- 

      O                 15.994910
      H                  1.007825


 Effective nuclear repulsion energy (a.u.)       8.8410208052

            Nuclear Dipole moment (a.u.) 
            ----------------------------
        X                 Y               Z
 ---------------- ---------------- ----------------
     0.0000000000     0.0000000000     0.0000000000

      Symmetry information
      --------------------

 Group name             C2v       
 Group number             16
 Group order               4
 No. of unique centers     2

      Symmetry unique atoms

     1    2

                                 NWChem SCF Module
                                 -----------------


                    H2O - STO-3G optimization + HF frequencies



  ao basis        = "ao basis"
  functions       =     7
  atoms           =     3
  closed shells   =     5
  open shells     =     0
  charge          =   0.00
  wavefunction    = RHF 
  input vectors   = atomic
  output vectors  = ./h2o_freq.movecs
  use symmetry    = T
  symmetry adapt  = T


 Forming initial guess at       0.1s


 Starting SCF solution at       0.1s

 Local filesystem for scratch_dir


       Final RHF  results 
       ------------------ 

         Total SCF energy =    -74.961171139232
      One-electron energy =   -121.660437274481
      Two-electron energy =     37.858245330037
 Nuclear repulsion energy =      8.841020805213

        Time for solution =      0.0s


                              NWChem Gradients Module
                              -----------------------



                         RHF ENERGY GRADIENTS

    atom               coordinates                        gradient
                 x          y          z           x          y          z
   1 O       0.000000   0.000000  -0.267248    0.000000   0.000000  -0.047332
   2 H       1.336238   0.000000   1.068990   -0.016753   0.000000   0.023666
   3 H      -1.336238   0.000000   1.068990    0.016753   0.000000   0.023666

  no constraints, skipping    0.0000000000000000     

@ Step       Energy      Delta E   Gmax     Grms     Xrms     Xmax   Walltime
@ ---- ---------------- -------- -------- -------- -------- -------- --------
@    0     -74.96117114  0.0D+00  0.02858  0.01698  0.00000  0.00000      0.1
                                                                    



                                Z-matrix (autoz)
                                -------- 

 Units are Angstrom for bonds and degrees for angles

      Type          Name      I     J     K     L     M      Value     Gradient
      ----------- --------  ----- ----- ----- ----- ----- ---------- ----------
    1 Stretch                  1     2                       1.00000    0.00489
    2 Stretch                  1     3                       1.00000    0.00489
    3 Bend                     2     1     3                90.00000   -0.02858

 Restricting large step in mode    1 eval= 4.8D-02 step= 6.0D-01 new= 3.0D-01
  no constraints, skipping    0.0000000000000000     
  no constraints, skipping    0.0000000000000000     
  no constraints, skipping    0.0000000000000000     
  no constraints, skipping    0.0000000000000000     
  no constraints, skipping    0.0000000000000000     
                                 NWChem SCF Module
                                 -----------------


                    H2O - STO-3G optimization + HF frequencies



  ao basis        = "ao basis"
  functions       =     7
  atoms           =     3
  closed shells   =     5
  open shells     =     0
  charge          =   0.00
  wavefunction    = RHF 
  input vectors   = ./h2o_freq.movecs
  output vectors  = ./h2o_freq.movecs
  use symmetry    = T
  symmetry adapt  = T


 Forming initial guess at       0.1s


 Starting SCF solution at       0.1s

 Local filesystem for scratch_dir


       Final RHF  results 
       ------------------ 

         Total SCF energy =    -74.965850682292
      One-electron energy =   -121.787437751260
      Two-electron energy =     37.938072976926
 Nuclear repulsion energy =      8.883514092042

        Time for solution =      0.0s


 Line search: 
     step= 1.00 grad=-8.7D-03 hess= 4.0D-03 energy=    -74.965851 mode=accept  
 new step= 1.00                   predicted energy=    -74.965851
  no constraints, skipping    0.0000000000000000     
  no constraints, skipping    0.0000000000000000     
  no constraints, skipping    0.0000000000000000     
  no constraints, skipping    0.0000000000000000     
  no constraints, skipping    0.0000000000000000     

          --------
          Step   1
          --------


                         Geometry "geometry" -> "geometry"
                         ---------------------------------

 Output coordinates in angstroms (scale by  1.889725989 to convert to a.u.)

  No.       Tag          Charge          X              Y              Z
 ---- ---------------- ---------- -------------- -------------- --------------
    1 O                    8.0000     0.00000000     0.00000000    -0.09919972
    2 H                    1.0000     0.75504132     0.00000000     0.54457461
    3 H                    1.0000    -0.75504132     0.00000000     0.54457461

      Atomic Mass 
      ----------- 

      O                 15.994910
      H                  1.007825


 Effective nuclear repulsion energy (a.u.)       8.8835140920

            Nuclear Dipole moment (a.u.) 
            ----------------------------
        X                 Y               Z
 ---------------- ---------------- ----------------
     0.0000000000     0.0000000000     0.5585113067

      Symmetry information
      --------------------

 Group name             C2v       
 Group number             16
 Group order               4
 No. of unique centers     2

      Symmetry unique atoms

     1    2

                                 NWChem SCF Module
                                 -----------------


                    H2O - STO-3G optimization + HF frequencies



  ao basis        = "ao basis"
  functions       =     7
  atoms           =     3
  closed shells   =     5
  open shells     =     0
  charge          =   0.00
  wavefunction    = RHF 
  input vectors   = ./h2o_freq.movecs
  output vectors  = ./h2o_freq.movecs
  use symmetry    = T
  symmetry adapt  = T


  The SCF is already converged 

         Total SCF energy =    -74.965850682292

                              NWChem Gradients Module
                              -----------------------



                         RHF ENERGY GRADIENTS

    atom               coordinates                        gradient
                 x          y          z           x          y          z
   1 O       0.000000   0.000000  -0.187460    0.000000   0.000000  -0.007107
   2 H       1.426821   0.000000   1.029097    0.000510   0.000000   0.003554
   3 H      -1.426821   0.000000   1.029097   -0.000510   0.000000   0.003554

  no constraints, skipping    0.0000000000000000     

  Step       Energy      Delta E   Gmax     Grms     Xrms     Xmax   Walltime
  ---- ---------------- -------- -------- -------- -------- -------- --------
@    1     -74.96585068 -4.7D-03  0.00269  0.00259  0.05232  0.08540      0.2
                                                                    



                                Z-matrix (autoz)
                                -------- 

 Units are Angstrom for bonds and degrees for angles

      Type          Name      I     J     K     L     M      Value     Gradient
      ----------- --------  ----- ----- ----- ----- ----- ---------- ----------
    1 Stretch                  1     2                       0.99224    0.00269
    2 Stretch                  1     3                       0.99224    0.00269
    3 Bend                     2     1     3                99.09589   -0.00236

  no constraints, skipping    0.0000000000000000     
  no constraints, skipping    0.0000000000000000     
  no constraints, skipping    0.0000000000000000     
  no constraints, skipping    0.0000000000000000     
                                 NWChem SCF Module
                                 -----------------


                    H2O - STO-3G optimization + HF frequencies



  ao basis        = "ao basis"
  functions       =     7
  atoms           =     3
  closed shells   =     5
  open shells     =     0
  charge          =   0.00
  wavefunction    = RHF 
  input vectors   = ./h2o_freq.movecs
  output vectors  = ./h2o_freq.movecs
  use symmetry    = T
  symmetry adapt  = T


 Forming initial guess at       0.2s


 Starting SCF solution at       0.2s

 Local filesystem for scratch_dir


       Final RHF  results 
       ------------------ 

         Total SCF energy =    -74.965891941848
      One-electron energy =   -121.865551856206
      Two-electron energy =     37.975200630708
 Nuclear repulsion energy =      8.924459283650

        Time for solution =      0.0s


 Line search: 
     step= 1.00 grad=-1.2D-04 hess= 7.5D-05 energy=    -74.965892 mode=downhill
 new step= 0.78                   predicted energy=    -74.965896
  no constraints, skipping    0.0000000000000000     
  no constraints, skipping    0.0000000000000000     
  no constraints, skipping    0.0000000000000000     
  no constraints, skipping    0.0000000000000000     

          --------
          Step   2
          --------


                         Geometry "geometry" -> "geometry"
                         ---------------------------------

 Output coordinates in angstroms (scale by  1.889725989 to convert to a.u.)

  No.       Tag          Charge          X              Y              Z
 ---- ---------------- ---------- -------------- -------------- --------------
    1 O                    8.0000     0.00000000     0.00000000    -0.09464977
    2 H                    1.0000     0.75593952     0.00000000     0.54229963
    3 H                    1.0000    -0.75593952     0.00000000     0.54229963

      Atomic Mass 
      ----------- 

      O                 15.994910
      H                  1.007825


 Effective nuclear repulsion energy (a.u.)       8.9152764887

            Nuclear Dipole moment (a.u.) 
            ----------------------------
        X                 Y               Z
 ---------------- ---------------- ----------------
     0.0000000000     0.0000000000     0.6186984368

      Symmetry information
      --------------------

 Group name             C2v       
 Group number             16
 Group order               4
 No. of unique centers     2

      Symmetry unique atoms

     1    2

                                 NWChem SCF Module
                                 -----------------


                    H2O - STO-3G optimization + HF frequencies



  ao basis        = "ao basis"
  functions       =     7
  atoms           =     3
  closed shells   =     5
  open shells     =     0
  charge          =   0.00
  wavefunction    = RHF 
  input vectors   = ./h2o_freq.movecs
  output vectors  = ./h2o_freq.movecs
  use symmetry    = T
  symmetry adapt  = T


 Forming initial guess at       0.2s


 Starting SCF solution at       0.2s

 Local filesystem for scratch_dir


       Final RHF  results 
       ------------------ 

         Total SCF energy =    -74.965895700430
      One-electron energy =   -121.848046472906
      Two-electron energy =     37.966874283740
 Nuclear repulsion energy =      8.915276488736

        Time for solution =      0.0s


                              NWChem Gradients Module
                              -----------------------



                         RHF ENERGY GRADIENTS

    atom               coordinates                        gradient
                 x          y          z           x          y          z
   1 O       0.000000   0.000000  -0.178862    0.000000   0.000000   0.000377
   2 H       1.428519   0.000000   1.024798   -0.001459   0.000000  -0.000189
   3 H      -1.428519   0.000000   1.024798    0.001459   0.000000  -0.000189

  no constraints, skipping    0.0000000000000000     

  Step       Energy      Delta E   Gmax     Grms     Xrms     Xmax   Walltime
  ---- ---------------- -------- -------- -------- -------- -------- --------
@    2     -74.96589570 -4.5D-05  0.00124  0.00111  0.00359  0.00859      0.3
                                                                    



                                Z-matrix (autoz)
                                -------- 

 Units are Angstrom for bonds and degrees for angles

      Type          Name      I     J     K     L     M      Value     Gradient
      ----------- --------  ----- ----- ----- ----- ----- ---------- ----------
    1 Stretch                  1     2                       0.98851   -0.00124
    2 Stretch                  1     3                       0.98851   -0.00124
    3 Bend                     2     1     3                99.76549   -0.00079

  no constraints, skipping    0.0000000000000000     
  no constraints, skipping    0.0000000000000000     
  no constraints, skipping    0.0000000000000000     
  no constraints, skipping    0.0000000000000000     
                                 NWChem SCF Module
                                 -----------------


                    H2O - STO-3G optimization + HF frequencies



  ao basis        = "ao basis"
  functions       =     7
  atoms           =     3
  closed shells   =     5
  open shells     =     0
  charge          =   0.00
  wavefunction    = RHF 
  input vectors   = ./h2o_freq.movecs
  output vectors  = ./h2o_freq.movecs
  use symmetry    = T
  symmetry adapt  = T


 Forming initial guess at       0.3s


 Starting SCF solution at       0.3s

 Local filesystem for scratch_dir


       Final RHF  results 
       ------------------ 

         Total SCF energy =    -74.965900324955
      One-electron energy =   -121.828422312574
      Two-electron energy =     37.959613095866
 Nuclear repulsion energy =      8.902908891753

        Time for solution =      0.0s


 Line search: 
     step= 1.00 grad=-1.5D-05 hess= 1.1D-05 energy=    -74.965900 mode=downhill
 new step= 0.72                   predicted energy=    -74.965901
  no constraints, skipping    0.0000000000000000     
  no constraints, skipping    0.0000000000000000     
  no constraints, skipping    0.0000000000000000     
  no constraints, skipping    0.0000000000000000     

          --------
          Step   3
          --------


                         Geometry "geometry" -> "geometry"
                         ---------------------------------

 Output coordinates in angstroms (scale by  1.889725989 to convert to a.u.)

  No.       Tag          Charge          X              Y              Z
 ---- ---------------- ---------- -------------- -------------- --------------
    1 O                    8.0000     0.00000000     0.00000000    -0.09389437
    2 H                    1.0000     0.75807851     0.00000000     0.54192193
    3 H                    1.0000    -0.75807851     0.00000000     0.54192193

      Atomic Mass 
      ----------- 

      O                 15.994910
      H                  1.007825


 Effective nuclear repulsion energy (a.u.)       8.9064268948

            Nuclear Dipole moment (a.u.) 
            ----------------------------
        X                 Y               Z
 ---------------- ---------------- ----------------
     0.0000000000     0.0000000000     0.6286908135

      Symmetry information
      --------------------

 Group name             C2v       
 Group number             16
 Group order               4
 No. of unique centers     2

      Symmetry unique atoms

     1    2

                                 NWChem SCF Module
                                 -----------------


                    H2O - STO-3G optimization + HF frequencies



  ao basis        = "ao basis"
  functions       =     7
  atoms           =     3
  closed shells   =     5
  open shells     =     0
  charge          =   0.00
  wavefunction    = RHF 
  input vectors   = ./h2o_freq.movecs
  output vectors  = ./h2o_freq.movecs
  use symmetry    = T
  symmetry adapt  = T


 Forming initial guess at       0.3s


 Starting SCF solution at       0.3s

 Local filesystem for scratch_dir


       Final RHF  results 
       ------------------ 

         Total SCF energy =    -74.965901192279
      One-electron energy =   -121.834007285209
      Two-electron energy =     37.961679198110
 Nuclear repulsion energy =      8.906426894819

        Time for solution =      0.0s


                              NWChem Gradients Module
                              -----------------------



                         RHF ENERGY GRADIENTS

    atom               coordinates                        gradient
                 x          y          z           x          y          z
   1 O       0.000000   0.000000  -0.177435    0.000000   0.000000  -0.000015
   2 H       1.432561   0.000000   1.024084    0.000004   0.000000   0.000008
   3 H      -1.432561   0.000000   1.024084   -0.000004   0.000000   0.000008

  no constraints, skipping    0.0000000000000000     

  Step       Energy      Delta E   Gmax     Grms     Xrms     Xmax   Walltime
  ---- ---------------- -------- -------- -------- -------- -------- --------
@    3     -74.96590119 -5.5D-06  0.00001  0.00001  0.00199  0.00404      0.3
                                     ok       ok                    



                                Z-matrix (autoz)
                                -------- 

 Units are Angstrom for bonds and degrees for angles

      Type          Name      I     J     K     L     M      Value     Gradient
      ----------- --------  ----- ----- ----- ----- ----- ---------- ----------
    1 Stretch                  1     2                       0.98942    0.00001
    2 Stretch                  1     3                       0.98942    0.00001
    3 Bend                     2     1     3               100.02547   -0.00000

  no constraints, skipping    0.0000000000000000     
  no constraints, skipping    0.0000000000000000     
  no constraints, skipping    0.0000000000000000     
                                 NWChem SCF Module
                                 -----------------


                    H2O - STO-3G optimization + HF frequencies



  ao basis        = "ao basis"
  functions       =     7
  atoms           =     3
  closed shells   =     5
  open shells     =     0
  charge          =   0.00
  wavefunction    = RHF 
  input vectors   = ./h2o_freq.movecs
  output vectors  = ./h2o_freq.movecs
  use symmetry    = T
  symmetry adapt  = T


 Forming initial guess at       0.3s


 Starting SCF solution at       0.3s

 Local filesystem for scratch_dir


       Final RHF  results 
       ------------------ 

         Total SCF energy =    -74.965901192454
      One-electron energy =   -121.834106833844
      Two-electron energy =     37.961715686778
 Nuclear repulsion energy =      8.906489954612

        Time for solution =      0.0s


 Line search: 
     step= 1.00 grad=-3.8D-10 hess= 2.0D-10 energy=    -74.965901 mode=accept  
 new step= 1.00                   predicted energy=    -74.965901
  no constraints, skipping    0.0000000000000000     
  no constraints, skipping    0.0000000000000000     
  no constraints, skipping    0.0000000000000000     

          --------
          Step   4
          --------


                         Geometry "geometry" -> "geometry"
                         ---------------------------------

 Output coordinates in angstroms (scale by  1.889725989 to convert to a.u.)

  No.       Tag          Charge          X              Y              Z
 ---- ---------------- ---------- -------------- -------------- --------------
    1 O                    8.0000     0.00000000     0.00000000    -0.09388490
    2 H                    1.0000     0.75808075     0.00000000     0.54191720
    3 H                    1.0000    -0.75808075     0.00000000     0.54191720

      Atomic Mass 
      ----------- 

      O                 15.994910
      H                  1.007825


 Effective nuclear repulsion energy (a.u.)       8.9064899546

            Nuclear Dipole moment (a.u.) 
            ----------------------------
        X                 Y               Z
 ---------------- ---------------- ----------------
     0.0000000000     0.0000000000     0.6288160738

      Symmetry information
      --------------------

 Group name             C2v       
 Group number             16
 Group order               4
 No. of unique centers     2

      Symmetry unique atoms

     1    2

                                 NWChem SCF Module
                                 -----------------


                    H2O - STO-3G optimization + HF frequencies



  ao basis        = "ao basis"
  functions       =     7
  atoms           =     3
  closed shells   =     5
  open shells     =     0
  charge          =   0.00
  wavefunction    = RHF 
  input vectors   = ./h2o_freq.movecs
  output vectors  = ./h2o_freq.movecs
  use symmetry    = T
  symmetry adapt  = T


  The SCF is already converged 

         Total SCF energy =    -74.965901192454

                              NWChem Gradients Module
                              -----------------------



                         RHF ENERGY GRADIENTS

    atom               coordinates                        gradient
                 x          y          z           x          y          z
   1 O       0.000000   0.000000  -0.177417    0.000000   0.000000   0.000004
   2 H       1.432565   0.000000   1.024075   -0.000000   0.000000  -0.000002
   3 H      -1.432565   0.000000   1.024075    0.000000   0.000000  -0.000002

  no constraints, skipping    0.0000000000000000     

  Step       Energy      Delta E   Gmax     Grms     Xrms     Xmax   Walltime
  ---- ---------------- -------- -------- -------- -------- -------- --------
@    4     -74.96590119 -1.8D-10  0.00000  0.00000  0.00001  0.00002      0.4
                                     ok       ok       ok       ok  



                                Z-matrix (autoz)
                                -------- 

 Units are Angstrom for bonds and degrees for angles

      Type          Name      I     J     K     L     M      Value     Gradient
      ----------- --------  ----- ----- ----- ----- ----- ---------- ----------
    1 Stretch                  1     2                       0.98941   -0.00000
    2 Stretch                  1     3                       0.98941   -0.00000
    3 Bend                     2     1     3               100.02690    0.00000


      ----------------------
      Optimization converged
      ----------------------


  Step       Energy      Delta E   Gmax     Grms     Xrms     Xmax   Walltime
  ---- ---------------- -------- -------- -------- -------- -------- --------
@    4     -74.96590119 -1.8D-10  0.00000  0.00000  0.00001  0.00002      0.4
                                     ok       ok       ok       ok  



                                Z-matrix (autoz)
                                -------- 

 Units are Angstrom for bonds and degrees for angles

      Type          Name      I     J     K     L     M      Value     Gradient
      ----------- --------  ----- ----- ----- ----- ----- ---------- ----------
    1 Stretch                  1     2                       0.98941   -0.00000
    2 Stretch                  1     3                       0.98941   -0.00000
    3 Bend                     2     1     3               100.02690    0.00000



                         Geometry "geometry" -> "geometry"
                         ---------------------------------

 Output coordinates in angstroms (scale by  1.889725989 to convert to a.u.)

  No.       Tag          Charge          X              Y              Z
 ---- ---------------- ---------- -------------- -------------- --------------
    1 O                    8.0000     0.00000000     0.00000000    -0.09388490
    2 H                    1.0000     0.75808075     0.00000000     0.54191720
    3 H                    1.0000    -0.75808075     0.00000000     0.54191720

      Atomic Mass 
      ----------- 

      O                 15.994910
      H                  1.007825


 Effective nuclear repulsion energy (a.u.)       8.9064899546

            Nuclear Dipole moment (a.u.) 
            ----------------------------
        X                 Y               Z
 ---------------- ---------------- ----------------
     0.0000000000     0.0000000000     0.6288160738

      Symmetry information
      --------------------

 Group name             C2v       
 Group number             16
 Group order               4
 No. of unique centers     2

      Symmetry unique atoms

     1    2


                Final and change from initial internal coordinates
                --------------------------------------------------



                                Z-matrix (autoz)
                                -------- 

 Units are Angstrom for bonds and degrees for angles

      Type          Name      I     J     K     L     M      Value       Change
      ----------- --------  ----- ----- ----- ----- ----- ---------- ----------
    1 Stretch                  1     2                       0.98941   -0.01059
    2 Stretch                  1     3                       0.98941   -0.01059
    3 Bend                     2     1     3               100.02690   10.02690

 ==============================================================================
                                internuclear distances
 ------------------------------------------------------------------------------
       center one      |      center two      | atomic units |  angstroms
 ------------------------------------------------------------------------------
    2 H                |   1 O                |     1.86971  |     0.98941
    3 H                |   1 O                |     1.86971  |     0.98941
 ------------------------------------------------------------------------------
                         number of included internuclear distances:          2
 ==============================================================================



 ==============================================================================
                                 internuclear angles
 ------------------------------------------------------------------------------
        center 1       |       center 2       |       center 3       |  degrees
 ------------------------------------------------------------------------------
    2 H                |   1 O                |   3 H                |   100.03
 ------------------------------------------------------------------------------
                            number of included internuclear angles:          1
 ==============================================================================




 Task  times  cpu:        0.3s     wall:        0.3s


                                NWChem Input Module
                                -------------------




                   NWChem Nuclear Hessian and Frequency Analysis
                   ---------------------------------------------



                              NWChem Analytic Hessian
                              -----------------------

  ncent_ecp
 Local filesystem for scratch_dir

 HESSIAN: the one electron contributions are done in       0.0s


 HESSIAN: 2-el 1st deriv. term done in                     0.0s


 HESSIAN: 2-el 2nd deriv. term done in                     0.0s

  stpr_wrt_fd_from_sq: overwrite of existing file:./h2o_freq.hess
 stpr_wrt_fd_dipole: overwrite of existing file./h2o_freq.fd_ddipole

 HESSIAN: the two electron contributions are done in       0.0s

                                NWChem CPHF Module
                                ------------------


  scftype          =     RHF 
  nclosed          =        5
  nopen            =        0
  variables        =       10
  # of vectors     =        9
  tolerance        = 0.10D-03
  level shift      = 0.00D+00
  max iterations   =       50
  max subspace     =       90

 Local filesystem for scratch_dir

 #quartets = 1.200D+02 #integrals = 2.560D+02 #direct =  0.0% #cached =100.0%


 Integral file          = ./h2o_freq.aoints.0
 Record size in doubles =    65536    No. of integs per rec  =    43688
 Max. records in memory =        3    Max. records in file   =  2285933
 No. of bits per label  =        8    No. of bits per value  =       64

 SCF residual:    4.4554191571928372E-011


Iterative solution of linear equations
  No. of variables       10
  No. of equations        9
  Maximum subspace       90
        Iterations       50
       Convergence  1.0D-04
        Start time      0.4


   iter   nsub   residual    time
   ----  ------  --------  ---------
     1      9    3.13D-01       0.4
     2     18    2.13D-02       0.4
     3     27    2.62D-13       0.4

 Parallel integral file used       1 records with       0 large values

 HESSIAN: the CPHF contributions are done
  stpr_wrt_fd_from_sq: overwrite of existing file:./h2o_freq.hess
 stpr_wrt_fd_dipole: overwrite of existing file./h2o_freq.fd_ddipole

 Derivative Dipole

  
  
 X vector of derivative dipole (au) [debye/angstrom]
 d_dipole_x/<atom=   1,x> =    -0.0311     [   -0.1496]
 d_dipole_x/<atom=   1,y> =    -0.0000     [   -0.0000]
 d_dipole_x/<atom=   1,z> =    -0.0000     [   -0.0000]
 d_dipole_x/<atom=   2,x> =     0.0156     [    0.0748]
 d_dipole_x/<atom=   2,y> =     0.0000     [    0.0000]
 d_dipole_x/<atom=   2,z> =    -0.2216     [   -1.0646]
 d_dipole_x/<atom=   3,x> =     0.0156     [    0.0748]
 d_dipole_x/<atom=   3,y> =     0.0000     [    0.0000]
 d_dipole_x/<atom=   3,z> =     0.2216     [    1.0646]
  
 Y vector of derivative dipole (au) [debye/angstrom]
 d_dipole_y/<atom=   1,x> =     0.0000     [    0.0000]
 d_dipole_y/<atom=   1,y> =    -0.5597     [   -2.6883]
 d_dipole_y/<atom=   1,z> =    -0.0000     [   -0.0000]
 d_dipole_y/<atom=   2,x> =    -0.0000     [   -0.0000]
 d_dipole_y/<atom=   2,y> =     0.2798     [    1.3441]
 d_dipole_y/<atom=   2,z> =     0.0000     [    0.0000]
 d_dipole_y/<atom=   3,x> =    -0.0000     [   -0.0000]
 d_dipole_y/<atom=   3,y> =     0.2798     [    1.3441]
 d_dipole_y/<atom=   3,z> =     0.0000     [    0.0000]
  
 Z vector of derivative dipole (au) [debye/angstrom]
 d_dipole_z/<atom=   1,x> =    -0.0000     [   -0.0000]
 d_dipole_z/<atom=   1,y> =     0.0000     [    0.0000]
 d_dipole_z/<atom=   1,z> =     0.0835     [    0.4012]
 d_dipole_z/<atom=   2,x> =    -0.1571     [   -0.7544]
 d_dipole_z/<atom=   2,y> =     0.0000     [    0.0000]
 d_dipole_z/<atom=   2,z> =    -0.0418     [   -0.2006]
 d_dipole_z/<atom=   3,x> =     0.1571     [    0.7544]
 d_dipole_z/<atom=   3,y> =     0.0000     [    0.0000]
 d_dipole_z/<atom=   3,z> =    -0.0418     [   -0.2006]
  
  
 HESSIAN: the Hessian is done


  Vibrational analysis via the FX method 

  See chapter 2 in "Molecular Vibrations" by Wilson, Decius and Cross

  Vib: Default input used 

  Nuclear Hessian passed symmetry test 



 ---------------------------- Atom information ----------------------------
     atom    #        X              Y              Z            mass
 --------------------------------------------------------------------------
    O        1  0.0000000D+00  0.0000000D+00 -1.7741674D-01  1.5994910D+01
    H        2  1.4325649D+00  0.0000000D+00  1.0240750D+00  1.0078250D+00
    H        3 -1.4325649D+00  0.0000000D+00  1.0240750D+00  1.0078250D+00
 --------------------------------------------------------------------------




          ----------------------------------------------------
          MASS-WEIGHTED NUCLEAR HESSIAN (Hartree/Bohr/Bohr/Kamu)
          ----------------------------------------------------


               1            2            3            4            5            6            7            8            9
   ----- ----- ----- ----- -----
    1    5.02629D+01
    2   -9.16213D-16 -1.05560D-05
    3    1.66906D-15 -2.48737D-15  3.96939D+01
    4   -1.00119D+02 -2.38316D-15 -5.38763D+01  4.35504D+02
    5    3.77571D-15  2.10281D-05  7.20509D-16 -2.23057D-14 -6.02404D-05
    6   -8.39698D+01  1.24595D-14 -7.90664D+01  2.74576D+02 -4.92421D-14  2.97773D+02
    7   -1.00119D+02 -7.27096D-15  5.38763D+01 -3.66494D+01  2.64946D-14  5.99434D+01  4.35504D+02
    8    2.17799D-15  2.10281D-05 -3.80145D-15  1.06982D-14 -2.35314D-05 -1.21192D-15 -1.93749D-14 -6.02404D-05
    9    8.39698D+01  5.56914D-15 -7.90664D+01 -5.99434D+01 -4.08537D-14  1.72120D+01 -2.74576D+02  1.94623D-14  2.97773D+02



          -------------------------------------------------
          NORMAL MODE EIGENVECTORS IN CARTESIAN COORDINATES
          -------------------------------------------------
                 (Frequencies expressed in cm-1)

                    1           2           3           4           5           6
 
 Frequency         -1.58       -1.25       -0.98        0.00        0.00        0.01
 
           1     0.00000    -0.05186     0.00000     0.23563     0.00000    -0.00000
           2    -0.08365     0.00000     0.00000     0.00000     0.23563     0.00000
           3     0.00000     0.00000     0.00000     0.00000     0.00000     0.23563
           4     0.00000     0.41160     0.00000     0.23563     0.00000    -0.00000
           5     0.66377     0.00000    -0.70436     0.00000     0.23563     0.00000
           6     0.00000    -0.55259     0.00000     0.00001     0.00000     0.23563
           7     0.00000     0.41160     0.00000     0.23563     0.00000    -0.00000
           8     0.66377     0.00000     0.70436     0.00000     0.23563     0.00000
           9     0.00000     0.55259     0.00000    -0.00001     0.00000     0.23563

                    7           8           9
 
 Frequency       2170.05     4140.00     4391.07
 
           1    -0.00000    -0.00000     0.06562
           2     0.00000     0.00000     0.00000
           3     0.06612    -0.05123     0.00000
           4     0.43141     0.55678    -0.52076
           5     0.00000     0.00000     0.00000
           6    -0.52470     0.40655    -0.43676
           7    -0.43141    -0.55678    -0.52076
           8     0.00000     0.00000     0.00000
           9    -0.52470     0.40655     0.43676



 ----------------------------------------------------------------------------
 Normal Eigenvalue ||         Derivative Dipole Moments (debye/angs)
  Mode   [cm**-1]  ||      [d/dqX]             [d/dqY]           [d/dqZ]
 ------ ---------- || ------------------ ------------------ -----------------
    1       -1.579 ||       0.000               2.009             0.000
    2       -1.247 ||       1.246              -0.000             0.000
    3       -0.985 ||      -0.000              -0.000            -0.000
    4        0.000 ||      -0.000              -0.000            -0.000
    5        0.004 ||       0.000              -0.000             0.000
    6        0.007 ||      -0.000               0.000            -0.000
    7     2170.045 ||      -0.000               0.000             0.414
    8     4140.002 ||       0.000               0.000            -1.024
    9     4391.067 ||       0.842               0.000            -0.000
 ----------------------------------------------------------------------------



  
  
 ----------------------------------------------------------------------------
 Normal Eigenvalue ||                 Infra Red Intensities
  Mode   [cm**-1]  || [atomic units] [(debye/angs)**2] [(KM/mol)] [arbitrary]
 ------ ---------- || -------------- ----------------- ---------- -----------
    1       -1.579 ||    0.174990           4.037       170.589      48.329
    2       -1.247 ||    0.067284           1.552        65.591      18.583
    3       -0.985 ||    0.000000           0.000         0.000       0.000
    4        0.000 ||    0.000000           0.000         0.000       0.000
    5        0.004 ||    0.000000           0.000         0.000       0.000
    6        0.007 ||    0.000000           0.000         0.000       0.000
    7     2170.045 ||    0.007424           0.171         7.237       2.050
    8     4140.002 ||    0.045428           1.048        44.286      12.546
    9     4391.067 ||    0.030744           0.709        29.971       8.491
 ----------------------------------------------------------------------------





        Vibrational analysis via the FX method 
  --- with translations and rotations projected out ---
  --- via the Eckart algorithm                      ---
 Projected Nuclear Hessian trans-rot subspace norm:1.4830D-32
                         (should be close to zero!) 

          --------------------------------------------------------
          MASS-WEIGHTED PROJECTED HESSIAN (Hartree/Bohr/Bohr/Kamu)
          --------------------------------------------------------


               1            2            3            4            5            6            7            8            9
   ----- ----- ----- ----- -----
    1    5.02630D+01
    2    0.00000D+00  0.00000D+00
    3   -1.00074D-16  1.15593D-30  3.96939D+01
    4   -1.00119D+02 -1.15125D-30 -5.38763D+01  4.35504D+02
    5    0.00000D+00  0.00000D+00  1.53500D-30 -7.64391D-31  0.00000D+00
    6   -8.39697D+01 -3.06999D-30 -7.90664D+01  2.74576D+02 -6.11512D-30  2.97773D+02
    7   -1.00119D+02  0.00000D+00  5.38763D+01 -3.66494D+01  0.00000D+00  5.99433D+01  4.35504D+02
    8    1.91874D-31 -3.29638D-21  1.72687D-30 -1.91098D-30  3.28303D-21 -2.29317D-30  2.67537D-30  0.00000D+00
    9    8.39697D+01 -3.06999D-30 -7.90664D+01 -5.99433D+01 -6.11512D-30  1.72120D+01 -2.74576D+02 -3.05756D-30  2.97773D+02

 center of mass
 --------------
 x =   0.00000000 y =   0.00000000 z =  -0.04295192

 moments of inertia (a.u.)
 ------------------
           2.584111806009           0.000000000000           0.000000000000
           0.000000000000           6.720713770287           0.000000000000
           0.000000000000           0.000000000000           4.136601964277

 Rotational Constants
 --------------------
 A=  23.296274 cm-1  ( 33.517392 K)
 B=  14.553050 cm-1  ( 20.938125 K)
 C=   8.957408 cm-1  ( 12.887424 K)


 Temperature                      =   298.15K
 frequency scaling parameter      =   1.0000

 Zero-Point correction to Energy  =   15.291 kcal/mol  (  0.024367 au)
 Thermal correction to Energy     =   17.068 kcal/mol  (  0.027199 au)
 Thermal correction to Enthalpy   =   17.660 kcal/mol  (  0.028143 au)

 Total Entropy                    =   45.261 cal/mol-K
   - Translational                =   34.593 cal/mol-K (mol. weight =  18.0106)
   - Rotational                   =   10.668 cal/mol-K (symmetry #  =        2)
   - Vibrational                  =    0.001 cal/mol-K

 Cv (constant volume heat capacity) =    5.965 cal/mol-K
   - Translational                  =    2.979 cal/mol-K
   - Rotational                     =    2.979 cal/mol-K
   - Vibrational                    =    0.006 cal/mol-K



          -------------------------------------------------
          NORMAL MODE EIGENVECTORS IN CARTESIAN COORDINATES
          -------------------------------------------------
             (Projected Frequencies expressed in cm-1)

                    1           2           3           4           5           6
 
 P.Frequency       -0.00       -0.00        0.00        0.00        0.00        0.00
 
           1    -0.05089     0.00569     0.00000     0.00000     0.00000     0.23578
           2     0.00000     0.00000     0.25004     0.00000     0.00000     0.00000
           3     0.02619     0.23417     0.00000     0.00000     0.00000     0.00000
           4     0.40970    -0.04583     0.00000     0.00000     0.00000     0.23447
           5     0.00000     0.00000     0.00000     0.99611     0.00000     0.00000
           6    -0.52298     0.29560     0.00000     0.00000     0.00000     0.00156
           7     0.40970    -0.04583     0.00000     0.00000     0.00000     0.23447
           8     0.00000     0.00000     0.00000     0.00000     0.99611     0.00000
           9     0.57536     0.17275     0.00000     0.00000     0.00000    -0.00155

                    7           8           9
 
 P.Frequency     2170.05     4140.00     4391.07
 
           1    -0.00000    -0.00000     0.06562
           2     0.00000     0.00000     0.00000
           3     0.06612    -0.05123     0.00000
           4     0.43141     0.55678    -0.52076
           5     0.00000     0.00000     0.00000
           6    -0.52470     0.40655    -0.43676
           7    -0.43141    -0.55678    -0.52076
           8     0.00000     0.00000     0.00000
           9    -0.52470     0.40655     0.43676



 ----------------------------------------------------------------------------
 Normal Eigenvalue ||    Projected Derivative Dipole Moments (debye/angs)
  Mode   [cm**-1]  ||      [d/dqX]             [d/dqY]           [d/dqZ]
 ------ ---------- || ------------------ ------------------ -----------------
    1       -0.000 ||       1.238              -0.000             0.000
    2       -0.000 ||      -0.138               0.000             0.000
    3        0.000 ||      -0.000              -0.672             0.000
    4        0.000 ||       0.000               1.339             0.000
    5        0.000 ||       0.000               1.339             0.000
    6        0.000 ||      -0.004              -0.000            -0.000
    7     2170.045 ||       0.000               0.000             0.414
    8     4140.002 ||       0.000               0.000            -1.024
    9     4391.067 ||       0.842               0.000            -0.000
 ----------------------------------------------------------------------------



  
  
 ----------------------------------------------------------------------------
 Normal Eigenvalue ||           Projected Infra Red Intensities
  Mode   [cm**-1]  || [atomic units] [(debye/angs)**2] [(KM/mol)] [arbitrary]
 ------ ---------- || -------------- ----------------- ---------- -----------
    1       -0.000 ||    0.066452           1.533        64.781      18.353
    2       -0.000 ||    0.000831           0.019         0.810       0.230
    3        0.000 ||    0.019584           0.452        19.091       5.409
    4        0.000 ||    0.077703           1.793        75.749      21.460
    5        0.000 ||    0.077703           1.793        75.749      21.460
    6        0.000 ||    0.000001           0.000         0.001       0.000
    7     2170.045 ||    0.007424           0.171         7.237       2.050
    8     4140.002 ||    0.045428           1.048        44.286      12.546
    9     4391.067 ||    0.030744           0.709        29.971       8.491
 ----------------------------------------------------------------------------



 vib:animation  F

 Task  times  cpu:        0.1s     wall:        0.1s
 Summary of allocated global arrays
-----------------------------------
  No active global arrays


MA_summarize_allocated_blocks: starting scan ...
MA_summarize_allocated_blocks: scan completed: 0 heap blocks, 0 stack blocks
MA usage statistics:

	allocation statistics:
					      heap	     stack
					      ----	     -----
	current number of blocks	         0	         0
	maximum number of blocks	        26	        36
	current total bytes		         0	         0
	maximum total bytes		   1580000	  63955336
	maximum total K-bytes		      1580	     63956
	maximum total M-bytes		         2	        64


                                NWChem Input Module
                                -------------------




                                     CITATION
                                     --------
                Please cite the following reference when publishing
                           results obtained with NWChem:

          E. Apra, E. J. Bylaska, W. A. de Jong, N. Govind, K. Kowalski,
       T. P. Straatsma, M. Valiev, H. J. J. van Dam, Y. Alexeev, J. Anchell,
       V. Anisimov, F. W. Aquino, R. Atta-Fynn, J. Autschbach, N. P. Bauman,
     J. C. Becca, D. E. Bernholdt, K. Bhaskaran-Nair, S. Bogatko, P. Borowski,
         J. Boschen, J. Brabec, A. Bruner, E. Cauet, Y. Chen, G. N. Chuev,
      C. J. Cramer, J. Daily, M. J. O. Deegan, T. H. Dunning Jr., M. Dupuis,
   K. G. Dyall, G. I. Fann, S. A. Fischer, A. Fonari, H. Fruchtl, L. Gagliardi,
      J. Garza, N. Gawande, S. Ghosh, K. Glaesemann, A. W. Gotz, J. Hammond,
       V. Helms, E. D. Hermes, K. Hirao, S. Hirata, M. Jacquelin, L. Jensen,
   B. G. Johnson, H. Jonsson, R. A. Kendall, M. Klemm, R. Kobayashi, V. Konkov,
      S. Krishnamoorthy, M. Krishnan, Z. Lin, R. D. Lins, R. J. Littlefield,
      A. J. Logsdail, K. Lopata, W. Ma, A. V. Marenich, J. Martin del Campo,
   D. Mejia-Rodriguez, J. E. Moore, J. M. Mullin, T. Nakajima, D. R. Nascimento,
    J. A. Nichols, P. J. Nichols, J. Nieplocha, A. Otero-de-la-Roza, B. Palmer,
    A. Panyala, T. Pirojsirikul, B. Peng, R. Peverati, J. Pittner, L. Pollack,
   R. M. Richard, P. Sadayappan, G. C. Schatz, W. A. Shelton, D. W. Silverstein,
   D. M. A. Smith, T. A. Soares, D. Song, M. Swart, H. L. Taylor, G. S. Thomas,
            V. Tipparaju, D. G. Truhlar, K. Tsemekhman, T. Van Voorhis,
      A. Vazquez-Mayagoitia, P. Verma, O. Villa, A. Vishnu, K. D. Vogiatzis,
        D. Wang, J. H. Weare, M. J. Williamson, T. L. Windus, K. Wolinski,
        A. T. Wong, Q. Wu, C. Yang, Q. Yu, M. Zacharias, Z. Zhang, Y. Zhao,
                                and R. J. Harrison
                        "NWChem: Past, present, and future
                         J. Chem. Phys. 152, 184102 (2020)
                               doi:10.1063/5.0004997

                                      AUTHORS
                                      -------
        E. Apra, E. J. Bylaska, N. Govind, K. Kowalski, D. Mejia-Rodriguez,
        N. P. Bauman, A. Panyala, R. J. Harrison, M. Valiev, W. A. de Jong,
       T. P. Straatsma, H. J. J. van Dam, D. Wang, T. L. Windus, J. Hammond,
     J. Autschbach, R. de P. Soares, A. Kunitsa, K. Bhaskaran-Nair, J. Brabec,
      K. Lopata, S. A. Fischer, S. Krishnamoorthy, M. Jacquelin, R. Goswami,
       A. Woods, W. Ma, M. Klemm, O. Villa, Y. Chen, V. Anisimov, F. Aquino,
     S. Hirata, M. T. Hackler, E. Hermes, L. Jensen, J. E. Moore, J. C. Becca,
      V. Konjkov, T. Risthaus, M. Malagoli, A. Marenich, A. Otero-de-la-Roza,
        J. Mullin, P. Nichols, R. Peverati, J. Pittner, Y. Zhao, P.-D. Fan,
        A. Fonari, M. J. Williamson, J. R. Rehr, M. Dupuis, D. Silverstein,
    D. M. A. Smith, J. Nieplocha, V. Tipparaju, M. Krishnan, B. E. Van Kuiken,
        A. Vazquez-Mayagoitia, M. Swart, Q. Wu, T. Van Voorhis, A. A. Auer,
     M. Nooijen, L. D. Crosby, E. Brown, G. Cisneros, G. I. Fann, H. Fruchtl,
   J. Garza, K. Hirao, R. A. Kendall, J. A. Nichols, K. Tsemekhman, K. Wolinski,
     J. Anchell, D. E. Bernholdt, P. Borowski, T. Clark, D. Clerc, H. Dachsel,
   M. J. O. Deegan, K. Dyall, D. Elwood, E. Glendening, M. Gutowski, A. C. Hess,
         J. Jaffe, B. G. Johnson, J. Ju, R. Kobayashi, R. Kutteh, Z. Lin,
   R. Littlefield, X. Long, B. Meng, T. Nakajima, S. Niu, L. Pollack, M. Rosing,
   K. Glaesemann, G. Sandrone, M. Stave, H. Taylor, G. Thomas, J. H. van Lenthe,
                               A. T. Wong, Z. Zhang.

 Total times  cpu:        0.5s     wall:        0.5s
