 argument  1 = napthalene.nw
                                         
                                         


             Northwest Computational Chemistry Package (NWChem) 7.3.1
             --------------------------------------------------------


                    Environmental Molecular Sciences Laboratory
                       Pacific Northwest National Laboratory
                                Richland, WA 99352

                              Copyright (c) 1994-2025
                       Pacific Northwest National Laboratory
                            Battelle Memorial Institute

             NWChem is an open-source computational chemistry package
                        distributed under the terms of the
                      Educational Community License (ECL) 2.0
             A copy of the license is included with this distribution
                              in the LICENSE.TXT file

                                  ACKNOWLEDGMENT
                                  --------------

            This software and its documentation were developed at the
            EMSL at Pacific Northwest National Laboratory, a multiprogram
            national laboratory, operated for the U.S. Department of Energy
            by Battelle under Contract Number DE-AC05-76RL01830. Support
            for this work was provided by the Department of Energy Office
            of Biological and Environmental Research, Office of Basic
            Energy Sciences, and the Office of Advanced Scientific Computing.


           Job information
           ---------------

    hostname        = c11e5e0fbb88
    program         = nwchem
    date            = Tue Jul 21 01:01:16 2026

    compiled        = Thu_Jun_18_19:54:51_2026
    source          = /opt/nwchem
    nwchem branch   = 7.3.1
    nwchem revision = v7.2.0-beta1-1866-gb3dec9748e
    ga revision     = 5.9.2
    use scalapack   = F
    input           = napthalene.nw
    prefix          = napthalene.
    data base       = ./napthalene.db
    status          = startup
    nproc           =        1
    time left       =     -1s



           Memory information
           ------------------

    heap     =     26214400 doubles =      200.0 Mbytes
    stack    =     26214397 doubles =      200.0 Mbytes
    global   =     52428800 doubles =      400.0 Mbytes (distinct from heap & stack)
    total    =    104857597 doubles =      800.0 Mbytes
    verify   = yes
    hardfail = no 


           Directory information
           ---------------------

  0 permanent = .
  0 scratch   = .




                                NWChem Input Module
                                -------------------



 Scaling coordinates for geometry "geometry" by  1.889725989
 (inverse scale =  0.529177249)

 C2V symmetry detected

          ------
          auto-z
          ------
  no constraints, skipping    0.0000000000000000     
  no constraints, skipping    0.0000000000000000     


                             Geometry "geometry" -> ""
                             -------------------------

 Output coordinates in angstroms (scale by  1.889725989 to convert to a.u.)

  No.       Tag          Charge          X              Y              Z
 ---- ---------------- ---------- -------------- -------------- --------------
    1 C                    6.0000     0.00000000     0.71040000    -0.01233529
    2 C                    6.0000     0.00000000    -0.71040000    -0.01233529
    3 C                    6.0000     0.00000000    -1.39500000     1.22966471
    4 C                    6.0000     0.00000000    -0.71040000     2.47166471
    5 C                    6.0000     0.00000000     0.71040000     2.47166471
    6 C                    6.0000     0.00000000     1.39500000     1.22966471
    7 C                    6.0000     0.00000000     1.39870000    -1.25723529
    8 C                    6.0000     0.00000000     0.71340000    -2.43163529
    9 C                    6.0000     0.00000000    -0.71340000    -2.43163529
   10 C                    6.0000     0.00000000    -1.39870000    -1.25723529
   11 H                    1.0000     0.00000000     2.48430000    -1.25413529
   12 H                    1.0000     0.00000000     1.25130000    -3.37243529
   13 H                    1.0000     0.00000000    -1.25130000    -3.37243529
   14 H                    1.0000     0.00000000    -2.48430000    -1.25413529
   15 H                    1.0000     0.00000000     2.48130000     1.22966471
   16 H                    1.0000     0.00000000    -2.48130000     1.22966471
   17 H                    1.0000     0.00000000     1.25890000     3.39616471
   18 H                    1.0000     0.00000000    -1.25890000     3.39616471

      Atomic Mass 
      ----------- 

      C                 12.000000
      H                  1.007825


 Effective nuclear repulsion energy (a.u.)     456.3200108789

            Nuclear Dipole moment (a.u.) 
            ----------------------------
        X                 Y               Z
 ---------------- ---------------- ----------------
     0.0000000000    -0.0000000000    -0.0000000000

      Symmetry information
      --------------------

 Group name             C2v       
 Group number             16
 Group order               4
 No. of unique centers     9

      Symmetry unique atoms

     1    3    4    7    8   11   12   15   17



                                Z-matrix (autoz)
                                -------- 

 Units are Angstrom for bonds and degrees for angles

      Type          Name      I     J     K     L     M      Value
      ----------- --------  ----- ----- ----- ----- ----- ----------
    1 Stretch                  1     2                       1.42080
    2 Stretch                  1     6                       1.41818
    3 Stretch                  1     7                       1.42251
    4 Stretch                  2     3                       1.41818
    5 Stretch                  2    10                       1.42251
    6 Stretch                  3     4                       1.41818
    7 Stretch                  3    16                       1.08630
    8 Stretch                  4     5                       1.42080
    9 Stretch                  4    18                       1.07497
   10 Stretch                  5     6                       1.41818
   11 Stretch                  5    17                       1.07497
   12 Stretch                  6    15                       1.08630
   13 Stretch                  7     8                       1.35972
   14 Stretch                  7    11                       1.08560
   15 Stretch                  8     9                       1.42680
   16 Stretch                  8    12                       1.08372
   17 Stretch                  9    10                       1.35972
   18 Stretch                  9    13                       1.08372
   19 Stretch                 10    14                       1.08560
   20 Bend                     1     2     3               118.86389
   21 Bend                     1     2    10               118.93802
   22 Bend                     1     6     5               122.27221
   23 Bend                     1     6    15               118.86389
   24 Bend                     1     7     8               120.79705
   25 Bend                     1     7    11               118.77441
   26 Bend                     2     1     6               118.86389
   27 Bend                     2     1     7               118.93802
   28 Bend                     2     3     4               122.27221
   29 Bend                     2     3    16               118.86389
   30 Bend                     2    10     9               120.79705
   31 Bend                     2    10    14               118.77441
   32 Bend                     3     2    10               122.19808
   33 Bend                     3     4     5               118.86389
   34 Bend                     3     4    18               120.45572
   35 Bend                     4     3    16               118.86389
   36 Bend                     4     5     6               118.86389
   37 Bend                     4     5    17               120.68039
   38 Bend                     5     4    18               120.68039
   39 Bend                     5     6    15               118.86389
   40 Bend                     6     1     7               122.19808
   41 Bend                     6     5    17               120.45572
   42 Bend                     7     8     9               120.26493
   43 Bend                     7     8    12               119.97642
   44 Bend                     8     7    11               120.42854
   45 Bend                     8     9    10               120.26493
   46 Bend                     8     9    13               119.75865
   47 Bend                     9     8    12               119.75865
   48 Bend                     9    10    14               120.42854
   49 Bend                    10     9    13               119.97642
   50 Torsion                  1     2     3     4           0.00000
   51 Torsion                  1     2     3    16         180.00000
   52 Torsion                  1     2    10     9           0.00000
   53 Torsion                  1     2    10    14         180.00000
   54 Torsion                  1     6     5     4           0.00000
   55 Torsion                  1     6     5    17         180.00000
   56 Torsion                  1     7     8     9           0.00000
   57 Torsion                  1     7     8    12         180.00000
   58 Torsion                  2     1     6     5           0.00000
   59 Torsion                  2     1     6    15         180.00000
   60 Torsion                  2     1     7     8          -0.00000
   61 Torsion                  2     1     7    11         180.00000
   62 Torsion                  2     3     4     5           0.00000
   63 Torsion                  2     3     4    18         180.00000
   64 Torsion                  2    10     9     8           0.00000
   65 Torsion                  2    10     9    13         180.00000
   66 Torsion                  3     2     1     6           0.00000
   67 Torsion                  3     2     1     7         180.00000
   68 Torsion                  3     2    10     9         180.00000
   69 Torsion                  3     2    10    14           0.00000
   70 Torsion                  3     4     5     6           0.00000
   71 Torsion                  3     4     5    17         180.00000
   72 Torsion                  4     3     2    10         180.00000
   73 Torsion                  4     5     6    15         180.00000
   74 Torsion                  5     4     3    16         180.00000
   75 Torsion                  5     6     1     7         180.00000
   76 Torsion                  6     1     2    10         180.00000
   77 Torsion                  6     1     7     8         180.00000
   78 Torsion                  6     1     7    11           0.00000
   79 Torsion                  6     5     4    18         180.00000
   80 Torsion                  7     1     2    10           0.00000
   81 Torsion                  7     1     6    15           0.00000
   82 Torsion                  7     8     9    10          -0.00000
   83 Torsion                  7     8     9    13         180.00000
   84 Torsion                  8     9    10    14         180.00000
   85 Torsion                  9     8     7    11         180.00000
   86 Torsion                 10     2     3    16           0.00000
   87 Torsion                 10     9     8    12         180.00000
   88 Torsion                 11     7     8    12           0.00000
   89 Torsion                 12     8     9    13           0.00000
   90 Torsion                 13     9    10    14           0.00000
   91 Torsion                 15     6     5    17           0.00000
   92 Torsion                 16     3     4    18           0.00000
   93 Torsion                 17     5     4    18          -0.00000


            XYZ format geometry
            -------------------
    18
 geometry
 C                     0.00000000     0.71040000    -0.01233529
 C                     0.00000000    -0.71040000    -0.01233529
 C                     0.00000000    -1.39500000     1.22966471
 C                     0.00000000    -0.71040000     2.47166471
 C                     0.00000000     0.71040000     2.47166471
 C                     0.00000000     1.39500000     1.22966471
 C                     0.00000000     1.39870000    -1.25723529
 C                     0.00000000     0.71340000    -2.43163529
 C                     0.00000000    -0.71340000    -2.43163529
 C                     0.00000000    -1.39870000    -1.25723529
 H                     0.00000000     2.48430000    -1.25413529
 H                     0.00000000     1.25130000    -3.37243529
 H                     0.00000000    -1.25130000    -3.37243529
 H                     0.00000000    -2.48430000    -1.25413529
 H                     0.00000000     2.48130000     1.22966471
 H                     0.00000000    -2.48130000     1.22966471
 H                     0.00000000     1.25890000     3.39616471
 H                     0.00000000    -1.25890000     3.39616471

 ==============================================================================
                                internuclear distances
 ------------------------------------------------------------------------------
       center one      |      center two      | atomic units |  angstroms
 ------------------------------------------------------------------------------
    2 C                |   1 C                |     2.68492  |     1.42080
    3 C                |   2 C                |     2.67998  |     1.41818
    4 C                |   3 C                |     2.67998  |     1.41818
    5 C                |   4 C                |     2.68492  |     1.42080
    6 C                |   1 C                |     2.67998  |     1.41818
    6 C                |   5 C                |     2.67998  |     1.41818
    7 C                |   1 C                |     2.68815  |     1.42251
    8 C                |   7 C                |     2.56951  |     1.35972
    9 C                |   8 C                |     2.69626  |     1.42680
   10 C                |   2 C                |     2.68815  |     1.42251
   10 C                |   9 C                |     2.56951  |     1.35972
   11 H                |   7 C                |     2.05149  |     1.08560
   12 H                |   8 C                |     2.04793  |     1.08372
   13 H                |   9 C                |     2.04793  |     1.08372
   14 H                |  10 C                |     2.05149  |     1.08560
   15 H                |   6 C                |     2.05281  |     1.08630
   16 H                |   3 C                |     2.05281  |     1.08630
   17 H                |   5 C                |     2.03139  |     1.07497
   18 H                |   4 C                |     2.03139  |     1.07497
 ------------------------------------------------------------------------------
                         number of included internuclear distances:         19
 ==============================================================================



 ==============================================================================
                                 internuclear angles
 ------------------------------------------------------------------------------
        center 1       |       center 2       |       center 3       |  degrees
 ------------------------------------------------------------------------------
    2 C                |   1 C                |   6 C                |   118.86
    2 C                |   1 C                |   7 C                |   118.94
    6 C                |   1 C                |   7 C                |   122.20
    1 C                |   2 C                |   3 C                |   118.86
    1 C                |   2 C                |  10 C                |   118.94
    3 C                |   2 C                |  10 C                |   122.20
    2 C                |   3 C                |   4 C                |   122.27
    2 C                |   3 C                |  16 H                |   118.86
    4 C                |   3 C                |  16 H                |   118.86
    3 C                |   4 C                |   5 C                |   118.86
    3 C                |   4 C                |  18 H                |   120.46
    5 C                |   4 C                |  18 H                |   120.68
    4 C                |   5 C                |   6 C                |   118.86
    4 C                |   5 C                |  17 H                |   120.68
    6 C                |   5 C                |  17 H                |   120.46
    1 C                |   6 C                |   5 C                |   122.27
    1 C                |   6 C                |  15 H                |   118.86
    5 C                |   6 C                |  15 H                |   118.86
    1 C                |   7 C                |   8 C                |   120.80
    1 C                |   7 C                |  11 H                |   118.77
    8 C                |   7 C                |  11 H                |   120.43
    7 C                |   8 C                |   9 C                |   120.26
    7 C                |   8 C                |  12 H                |   119.98
    9 C                |   8 C                |  12 H                |   119.76
    8 C                |   9 C                |  10 C                |   120.26
    8 C                |   9 C                |  13 H                |   119.76
   10 C                |   9 C                |  13 H                |   119.98
    2 C                |  10 C                |   9 C                |   120.80
    2 C                |  10 C                |  14 H                |   118.77
    9 C                |  10 C                |  14 H                |   120.43
 ------------------------------------------------------------------------------
                            number of included internuclear angles:         30
 ==============================================================================



                      Basis "ao basis" -> "" (cartesian)
                      -----
  C (Carbon)
  ----------
            Exponent  Coefficients 
       -------------- ---------------------------------------------------------
  1 S  7.16168370E+01  0.154329
  1 S  1.30450960E+01  0.535328
  1 S  3.53051220E+00  0.444635

  2 S  2.94124940E+00 -0.099967
  2 S  6.83483100E-01  0.399513
  2 S  2.22289900E-01  0.700115

  3 P  2.94124940E+00  0.155916
  3 P  6.83483100E-01  0.607684
  3 P  2.22289900E-01  0.391957

  H (Hydrogen)
  ------------
            Exponent  Coefficients 
       -------------- ---------------------------------------------------------
  1 S  3.42525091E+00  0.154329
  1 S  6.23913730E-01  0.535328
  1 S  1.68855400E-01  0.444635

  O (Oxygen)
  ----------
            Exponent  Coefficients 
       -------------- ---------------------------------------------------------
  1 S  1.30709320E+02  0.154329
  1 S  2.38088610E+01  0.535328
  1 S  6.44360830E+00  0.444635

  2 S  5.03315130E+00 -0.099967
  2 S  1.16959610E+00  0.399513
  2 S  3.80389000E-01  0.700115

  3 P  5.03315130E+00  0.155916
  3 P  1.16959610E+00  0.607684
  3 P  3.80389000E-01  0.391957



 Summary of "ao basis" -> "" (cartesian)
 ------------------------------------------------------------------------------
       Tag                 Description            Shells   Functions and Types
 ---------------- ------------------------------  ------  ---------------------
 C                           sto-3g                  3        5   2s1p
 H                           sto-3g                  1        1   1s
 O                           sto-3g                  3        5   2s1p




                           NWChem Geometry Optimization
                           ----------------------------


  no constraints, skipping    0.0000000000000000     
 maximum gradient threshold         (gmax) =   0.000450
 rms gradient threshold             (grms) =   0.000300
 maximum cartesian step threshold   (xmax) =   0.001800
 rms cartesian step threshold       (xrms) =   0.001200
 fixed trust radius                (trust) =   0.300000
 maximum step size to saddle      (sadstp) =   0.100000
 energy precision                  (eprec) =   1.0D-07
 maximum number of steps          (nptopt) =   40
 initial hessian option           (inhess) =    0
 line search option               (linopt) =    1
 hessian update option            (modupd) =    1
 saddle point option              (modsad) =    0
 initial eigen-mode to follow     (moddir) =    0
 initial variable to follow       (vardir) =    0
 follow first negative mode     (firstneg) =    T
 apply conjugacy                    (opcg) =    F
 source of zmatrix                         =   autoz   


          -------------------
          Energy Minimization
          -------------------


 Names of Z-matrix variables 
    1              2              3              4              5         
    6              7              8              9             10         
   11             12             13             14             15         
   16             17             18             19             20         
   21             22             23             24             25         
   26             27             28             29             30         
   31             32             33             34             35         
   36             37             38             39             40         
   41             42             43             44             45         
   46             47             48             49             50         
   51             52             53             54             55         
   56             57             58             59             60         
   61             62             63             64             65         
   66             67             68             69             70         
   71             72             73             74             75         
   76             77             78             79             80         
   81             82             83             84             85         
   86             87             88             89             90         
   91             92             93         

 Variables with the same non-blank name are constrained to be equal


 Using diagonal initial Hessian 
 Scaling for Hessian diagonals: bonds = 1.00  angles = 0.25  torsions = 0.10

          --------
          Step   0
          --------


                         Geometry "geometry" -> "geometry"
                         ---------------------------------

 Output coordinates in angstroms (scale by  1.889725989 to convert to a.u.)

  No.       Tag          Charge          X              Y              Z
 ---- ---------------- ---------- -------------- -------------- --------------
    1 C                    6.0000     0.00000000     0.71040000    -0.01233529
    2 C                    6.0000     0.00000000    -0.71040000    -0.01233529
    3 C                    6.0000     0.00000000    -1.39500000     1.22966471
    4 C                    6.0000     0.00000000    -0.71040000     2.47166471
    5 C                    6.0000     0.00000000     0.71040000     2.47166471
    6 C                    6.0000     0.00000000     1.39500000     1.22966471
    7 C                    6.0000     0.00000000     1.39870000    -1.25723529
    8 C                    6.0000     0.00000000     0.71340000    -2.43163529
    9 C                    6.0000     0.00000000    -0.71340000    -2.43163529
   10 C                    6.0000     0.00000000    -1.39870000    -1.25723529
   11 H                    1.0000     0.00000000     2.48430000    -1.25413529
   12 H                    1.0000     0.00000000     1.25130000    -3.37243529
   13 H                    1.0000     0.00000000    -1.25130000    -3.37243529
   14 H                    1.0000     0.00000000    -2.48430000    -1.25413529
   15 H                    1.0000     0.00000000     2.48130000     1.22966471
   16 H                    1.0000     0.00000000    -2.48130000     1.22966471
   17 H                    1.0000     0.00000000     1.25890000     3.39616471
   18 H                    1.0000     0.00000000    -1.25890000     3.39616471

      Atomic Mass 
      ----------- 

      C                 12.000000
      H                  1.007825


 Effective nuclear repulsion energy (a.u.)     456.3200108789

            Nuclear Dipole moment (a.u.) 
            ----------------------------
        X                 Y               Z
 ---------------- ---------------- ----------------
     0.0000000000    -0.0000000000    -0.0000000000

      Symmetry information
      --------------------

 Group name             C2v       
 Group number             16
 Group order               4
 No. of unique centers     9

      Symmetry unique atoms

     1    3    4    7    8   11   12   15   17

                                 NWChem SCF Module
                                 -----------------



  ao basis        = "ao basis"
  functions       =    58
  atoms           =    18
  closed shells   =    34
  open shells     =     0
  charge          =   0.00
  wavefunction    = RHF 
  input vectors   = atomic
  output vectors  = ./napthalene.movecs
  use symmetry    = T
  symmetry adapt  = T


 Forming initial guess at       1.1s


 Starting SCF solution at       1.3s

 Local filesystem for scratch_dir


       Final RHF  results 
       ------------------ 

         Total SCF energy =   -378.678052337959
      One-electron energy =  -1419.593682256545
      Two-electron energy =    584.595619039701
 Nuclear repulsion energy =    456.320010878885

        Time for solution =      0.6s


                              NWChem Gradients Module
                              -----------------------



                         RHF ENERGY GRADIENTS

    atom               coordinates                        gradient
                 x          y          z           x          y          z
   1 C       0.000000   1.342461  -0.023310    0.000000   0.008629  -0.017459
   2 C       0.000000  -1.342461  -0.023310    0.000000  -0.008629  -0.017459
   3 C       0.000000  -2.636168   2.323729    0.000000  -0.019696  -0.050272
   4 C       0.000000  -1.342461   4.670769    0.000000   0.002371   0.062425
   5 C       0.000000   1.342461   4.670769    0.000000  -0.002371   0.062425
   6 C       0.000000   2.636168   2.323729    0.000000   0.019696  -0.050272
   7 C       0.000000   2.643160  -2.375830    0.000000  -0.002241   0.018846
   8 C       0.000000   1.348131  -4.595124    0.000000  -0.006733  -0.007956
   9 C       0.000000  -1.348131  -4.595124    0.000000   0.006733  -0.007956
  10 C       0.000000  -2.643160  -2.375830    0.000000   0.002241   0.018846
  11 H       0.000000   4.694646  -2.369972    0.000000   0.002696  -0.000271
  12 H       0.000000   2.364614  -6.372979    0.000000   0.001782  -0.000120
  13 H       0.000000  -2.364614  -6.372979    0.000000  -0.001782  -0.000120
  14 H       0.000000  -4.694646  -2.369972    0.000000  -0.002696  -0.000271
  15 H       0.000000   4.688977   2.323729    0.000000   0.002600   0.000748
  16 H       0.000000  -4.688977   2.323729    0.000000  -0.002600   0.000748
  17 H       0.000000   2.378976   6.417821    0.000000  -0.004204  -0.005941
  18 H       0.000000  -2.378976   6.417821    0.000000   0.004204  -0.005941

  no constraints, skipping    0.0000000000000000     

@ Step       Energy      Delta E   Gmax     Grms     Xrms     Xmax   Walltime
@ ---- ---------------- -------- -------- -------- -------- -------- --------
@    0    -378.67805234  0.0D+00  0.05626  0.00913  0.00000  0.00000      2.8
                                                                    



                                Z-matrix (autoz)
                                -------- 

 Units are Angstrom for bonds and degrees for angles

      Type          Name      I     J     K     L     M      Value     Gradient
      ----------- --------  ----- ----- ----- ----- ----- ---------- ----------
    1 Stretch                  1     2                       1.42080    0.01442
    2 Stretch                  1     6                       1.41818    0.01006
    3 Stretch                  1     7                       1.42251   -0.01036
    4 Stretch                  2     3                       1.41818    0.01006
    5 Stretch                  2    10                       1.42251   -0.01036
    6 Stretch                  3     4                       1.41818    0.05626
    7 Stretch                  3    16                       1.08630    0.00260
    8 Stretch                  4     5                       1.42080    0.00750
    9 Stretch                  4    18                       1.07497   -0.00725
   10 Stretch                  5     6                       1.41818    0.05626
   11 Stretch                  5    17                       1.07497   -0.00725
   12 Stretch                  6    15                       1.08630    0.00260
   13 Stretch                  7     8                       1.35972    0.00843
   14 Stretch                  7    11                       1.08560    0.00270
   15 Stretch                  8     9                       1.42680   -0.00207
   16 Stretch                  8    12                       1.08372    0.00099
   17 Stretch                  9    10                       1.35972    0.00843
   18 Stretch                  9    13                       1.08372    0.00099
   19 Stretch                 10    14                       1.08560    0.00270
   20 Bend                     1     2     3               118.86389    0.00557
   21 Bend                     1     2    10               118.93802   -0.00004
   22 Bend                     1     6     5               122.27221    0.00404
   23 Bend                     1     6    15               118.86389   -0.00161
   24 Bend                     1     7     8               120.79705    0.00096
   25 Bend                     1     7    11               118.77441   -0.00033
   26 Bend                     2     1     6               118.86389    0.00557
   27 Bend                     2     1     7               118.93802   -0.00004
   28 Bend                     2     3     4               122.27221    0.00404
   29 Bend                     2     3    16               118.86389   -0.00161
   30 Bend                     2    10     9               120.79705    0.00096
   31 Bend                     2    10    14               118.77441   -0.00033
   32 Bend                     3     2    10               122.19808   -0.00553
   33 Bend                     3     4     5               118.86389   -0.00961
   34 Bend                     3     4    18               120.45572    0.00512
   35 Bend                     4     3    16               118.86389   -0.00243
   36 Bend                     4     5     6               118.86389   -0.00961
   37 Bend                     4     5    17               120.68039    0.00449
   38 Bend                     5     4    18               120.68039    0.00449
   39 Bend                     5     6    15               118.86389   -0.00243
   40 Bend                     6     1     7               122.19808   -0.00553
   41 Bend                     6     5    17               120.45572    0.00512
   42 Bend                     7     8     9               120.26493   -0.00091
   43 Bend                     7     8    12               119.97642   -0.00035
   44 Bend                     8     7    11               120.42854   -0.00063
   45 Bend                     8     9    10               120.26493   -0.00091
   46 Bend                     8     9    13               119.75865    0.00126
   47 Bend                     9     8    12               119.75865    0.00126
   48 Bend                     9    10    14               120.42854   -0.00063
   49 Bend                    10     9    13               119.97642   -0.00035
   50 Torsion                  1     2     3     4           0.00000    0.00000
   51 Torsion                  1     2     3    16         180.00000    0.00000
   52 Torsion                  1     2    10     9           0.00000    0.00000
   53 Torsion                  1     2    10    14         180.00000    0.00000
   54 Torsion                  1     6     5     4           0.00000    0.00000
   55 Torsion                  1     6     5    17         180.00000    0.00000
   56 Torsion                  1     7     8     9           0.00000    0.00000
   57 Torsion                  1     7     8    12         180.00000    0.00000
   58 Torsion                  2     1     6     5           0.00000    0.00000
   59 Torsion                  2     1     6    15         180.00000    0.00000
   60 Torsion                  2     1     7     8          -0.00000    0.00000
   61 Torsion                  2     1     7    11         180.00000    0.00000
   62 Torsion                  2     3     4     5           0.00000    0.00000
   63 Torsion                  2     3     4    18         180.00000    0.00000
   64 Torsion                  2    10     9     8           0.00000    0.00000
   65 Torsion                  2    10     9    13         180.00000    0.00000
   66 Torsion                  3     2     1     6           0.00000    0.00000
   67 Torsion                  3     2     1     7         180.00000    0.00000
   68 Torsion                  3     2    10     9         180.00000    0.00000
   69 Torsion                  3     2    10    14           0.00000    0.00000
   70 Torsion                  3     4     5     6           0.00000    0.00000
   71 Torsion                  3     4     5    17         180.00000    0.00000
   72 Torsion                  4     3     2    10         180.00000    0.00000
   73 Torsion                  4     5     6    15         180.00000    0.00000
   74 Torsion                  5     4     3    16         180.00000    0.00000
   75 Torsion                  5     6     1     7         180.00000    0.00000
   76 Torsion                  6     1     2    10         180.00000    0.00000
   77 Torsion                  6     1     7     8         180.00000    0.00000
   78 Torsion                  6     1     7    11           0.00000    0.00000
   79 Torsion                  6     5     4    18         180.00000    0.00000
   80 Torsion                  7     1     2    10           0.00000    0.00000
   81 Torsion                  7     1     6    15           0.00000    0.00000
   82 Torsion                  7     8     9    10          -0.00000    0.00000
   83 Torsion                  7     8     9    13         180.00000    0.00000
   84 Torsion                  8     9    10    14         180.00000    0.00000
   85 Torsion                  9     8     7    11         180.00000    0.00000
   86 Torsion                 10     2     3    16           0.00000    0.00000
   87 Torsion                 10     9     8    12         180.00000    0.00000
   88 Torsion                 11     7     8    12           0.00000    0.00000
   89 Torsion                 12     8     9    13           0.00000    0.00000
   90 Torsion                 13     9    10    14           0.00000    0.00000
   91 Torsion                 15     6     5    17           0.00000    0.00000
   92 Torsion                 16     3     4    18           0.00000    0.00000
   93 Torsion                 17     5     4    18          -0.00000    0.00000

  no constraints, skipping    0.0000000000000000     
  no constraints, skipping    0.0000000000000000     
  no constraints, skipping    0.0000000000000000     
  no constraints, skipping    0.0000000000000000     
  no constraints, skipping    0.0000000000000000     
  no constraints, skipping    0.0000000000000000     
  no constraints, skipping    0.0000000000000000     
  no constraints, skipping    0.0000000000000000     
                                 NWChem SCF Module
                                 -----------------



  ao basis        = "ao basis"
  functions       =    58
  atoms           =    18
  closed shells   =    34
  open shells     =     0
  charge          =   0.00
  wavefunction    = RHF 
  input vectors   = ./napthalene.movecs
  output vectors  = ./napthalene.movecs
  use symmetry    = T
  symmetry adapt  = T


 Forming initial guess at       4.6s


 Starting SCF solution at       4.6s

 Local filesystem for scratch_dir


       Final RHF  results 
       ------------------ 

         Total SCF energy =   -378.685550589988
      One-electron energy =  -1427.643945392517
      Two-electron energy =    588.491735356448
 Nuclear repulsion energy =    460.466659446082

        Time for solution =      0.7s


 Line search: 
     step= 1.00 grad=-1.9D-02 hess= 1.2D-02 energy=   -378.685551 mode=downhill
 new step= 0.82                   predicted energy=   -378.685920
  no constraints, skipping    0.0000000000000000     
  no constraints, skipping    0.0000000000000000     
  no constraints, skipping    0.0000000000000000     
  no constraints, skipping    0.0000000000000000     
  no constraints, skipping    0.0000000000000000     
  no constraints, skipping    0.0000000000000000     
  no constraints, skipping    0.0000000000000000     
  no constraints, skipping    0.0000000000000000     

          --------
          Step   1
          --------


                         Geometry "geometry" -> "geometry"
                         ---------------------------------

 Output coordinates in angstroms (scale by  1.889725989 to convert to a.u.)

  No.       Tag          Charge          X              Y              Z
 ---- ---------------- ---------- -------------- -------------- --------------
    1 C                    6.0000     0.00000000     0.70811051     0.00613239
    2 C                    6.0000     0.00000000    -0.70811051     0.00613239
    3 C                    6.0000     0.00000000    -1.38941509     1.24292171
    4 C                    6.0000     0.00000000    -0.70322777     2.41843517
    5 C                    6.0000     0.00000000     0.70322777     2.41843517
    6 C                    6.0000     0.00000000     1.38941509     1.24292171
    7 C                    6.0000     0.00000000     1.39731867    -1.25078829
    8 C                    6.0000     0.00000000     0.71335151    -2.41658406
    9 C                    6.0000     0.00000000    -0.71335151    -2.41658406
   10 C                    6.0000     0.00000000    -1.39731867    -1.25078829
   11 H                    1.0000     0.00000000     2.47956733    -1.24963839
   12 H                    1.0000     0.00000000     1.24385241    -3.36016944
   13 H                    1.0000     0.00000000    -1.24385241    -3.36016944
   14 H                    1.0000     0.00000000    -2.47956733    -1.24963839
   15 H                    1.0000     0.00000000     2.47242615     1.25307360
   16 H                    1.0000     0.00000000    -2.47242615     1.25307360
   17 H                    1.0000     0.00000000     1.24693926     3.35599968
   18 H                    1.0000     0.00000000    -1.24693926     3.35599968

      Atomic Mass 
      ----------- 

      C                 12.000000
      H                  1.007825


 Effective nuclear repulsion energy (a.u.)     459.7065752453

            Nuclear Dipole moment (a.u.) 
            ----------------------------
        X                 Y               Z
 ---------------- ---------------- ----------------
     0.0000000000    -0.0000000000    -0.0001250032

      Symmetry information
      --------------------

 Group name             C2v       
 Group number             16
 Group order               4
 No. of unique centers     9

      Symmetry unique atoms

     1    3    4    7    8   11   12   15   17

                                 NWChem SCF Module
                                 -----------------



  ao basis        = "ao basis"
  functions       =    58
  atoms           =    18
  closed shells   =    34
  open shells     =     0
  charge          =   0.00
  wavefunction    = RHF 
  input vectors   = ./napthalene.movecs
  output vectors  = ./napthalene.movecs
  use symmetry    = T
  symmetry adapt  = T


 Forming initial guess at       7.1s


 Starting SCF solution at       7.1s

 Local filesystem for scratch_dir


       Final RHF  results 
       ------------------ 

         Total SCF energy =   -378.686063997314
      One-electron energy =  -1426.172498166065
      Two-electron energy =    587.779858923450
 Nuclear repulsion energy =    459.706575245301

        Time for solution =      0.6s


                              NWChem Gradients Module
                              -----------------------



                         RHF ENERGY GRADIENTS

    atom               coordinates                        gradient
                 x          y          z           x          y          z
   1 C       0.000000   1.338135   0.011589    0.000000   0.011437   0.008682
   2 C       0.000000  -1.338135   0.011589    0.000000  -0.011437   0.008682
   3 C       0.000000  -2.625614   2.348781    0.000000   0.005205  -0.011781
   4 C       0.000000  -1.328908   4.570180    0.000000   0.012291   0.000087
   5 C       0.000000   1.328908   4.570180    0.000000  -0.012291   0.000087
   6 C       0.000000   2.625614   2.348781    0.000000  -0.005205  -0.011781
   7 C       0.000000   2.640549  -2.363647    0.000000   0.000524   0.002198
   8 C       0.000000   1.348039  -4.566682    0.000000  -0.002409  -0.000779
   9 C       0.000000  -1.348039  -4.566682    0.000000   0.002409  -0.000779
  10 C       0.000000  -2.640549  -2.363647    0.000000  -0.000524   0.002198
  11 H       0.000000   4.685703  -2.361474    0.000000  -0.000442  -0.000747
  12 H       0.000000   2.350540  -6.349800    0.000000   0.000637   0.000503
  13 H       0.000000  -2.350540  -6.349800    0.000000  -0.000637   0.000503
  14 H       0.000000  -4.685703  -2.361474    0.000000   0.000442  -0.000747
  15 H       0.000000   4.672208   2.367966    0.000000   0.000370   0.001684
  16 H       0.000000  -4.672208   2.367966    0.000000  -0.000370   0.001684
  17 H       0.000000   2.356374   6.341920    0.000000   0.002076   0.000153
  18 H       0.000000  -2.356374   6.341920    0.000000  -0.002076   0.000153

  no constraints, skipping    0.0000000000000000     

  Step       Energy      Delta E   Gmax     Grms     Xrms     Xmax   Walltime
  ---- ---------------- -------- -------- -------- -------- -------- --------
@    1    -378.68606400 -8.0D-03  0.01139  0.00205  0.02887  0.10011      8.7
                                                                    



                                Z-matrix (autoz)
                                -------- 

 Units are Angstrom for bonds and degrees for angles

      Type          Name      I     J     K     L     M      Value     Gradient
      ----------- --------  ----- ----- ----- ----- ----- ---------- ----------
    1 Stretch                  1     2                       1.41622    0.00456
    2 Stretch                  1     6                       1.41203   -0.01139
    3 Stretch                  1     7                       1.43348   -0.00160
    4 Stretch                  2     3                       1.41203   -0.01139
    5 Stretch                  2    10                       1.43348   -0.00160
    6 Stretch                  3     4                       1.36113    0.00065
    7 Stretch                  3    16                       1.08306    0.00039
    8 Stretch                  4     5                       1.40646   -0.00935
    9 Stretch                  4    18                       1.08381    0.00117
   10 Stretch                  5     6                       1.36113    0.00065
   11 Stretch                  5    17                       1.08381    0.00117
   12 Stretch                  6    15                       1.08306    0.00039
   13 Stretch                  7     8                       1.35163    0.00087
   14 Stretch                  7    11                       1.08225   -0.00044
   15 Stretch                  8     9                       1.42670   -0.00051
   16 Stretch                  8    12                       1.08249   -0.00013
   17 Stretch                  9    10                       1.35163    0.00087
   18 Stretch                  9    13                       1.08249   -0.00013
   19 Stretch                 10    14                       1.08225   -0.00044
   20 Bend                     1     2     3               118.84885   -0.00044
   21 Bend                     1     2    10               118.73731   -0.00046
   22 Bend                     1     6     5               120.87758   -0.00006
   23 Bend                     1     6    15               119.38591    0.00094
   24 Bend                     1     7     8               120.86273   -0.00019
   25 Bend                     1     7    11               118.67643    0.00050
   26 Bend                     2     1     6               118.84885   -0.00044
   27 Bend                     2     1     7               118.73731   -0.00046
   28 Bend                     2     3     4               120.87758   -0.00006
   29 Bend                     2     3    16               119.38591    0.00094
   30 Bend                     2    10     9               120.86273   -0.00019
   31 Bend                     2    10    14               118.67643    0.00050
   32 Bend                     3     2    10               122.41384    0.00090
   33 Bend                     3     4     5               120.27357    0.00050
   34 Bend                     3     4    18               119.61617   -0.00118
   35 Bend                     4     3    16               119.73651   -0.00088
   36 Bend                     4     5     6               120.27357    0.00050
   37 Bend                     4     5    17               120.11026    0.00068
   38 Bend                     5     4    18               120.11026    0.00068
   39 Bend                     5     6    15               119.73651   -0.00088
   40 Bend                     6     1     7               122.41384    0.00090
   41 Bend                     6     5    17               119.61617   -0.00118
   42 Bend                     7     8     9               120.39996    0.00064
   43 Bend                     7     8    12               120.25455   -0.00076
   44 Bend                     8     7    11               120.46084   -0.00031
   45 Bend                     8     9    10               120.39996    0.00064
   46 Bend                     8     9    13               119.34549    0.00011
   47 Bend                     9     8    12               119.34549    0.00011
   48 Bend                     9    10    14               120.46084   -0.00031
   49 Bend                    10     9    13               120.25455   -0.00076
   50 Torsion                  1     2     3     4           0.00000    0.00000
   51 Torsion                  1     2     3    16         180.00000    0.00000
   52 Torsion                  1     2    10     9           0.00000    0.00000
   53 Torsion                  1     2    10    14         180.00000    0.00000
   54 Torsion                  1     6     5     4           0.00000    0.00000
   55 Torsion                  1     6     5    17         180.00000    0.00000
   56 Torsion                  1     7     8     9           0.00000    0.00000
   57 Torsion                  1     7     8    12         180.00000    0.00000
   58 Torsion                  2     1     6     5           0.00000    0.00000
   59 Torsion                  2     1     6    15         180.00000    0.00000
   60 Torsion                  2     1     7     8          -0.00000    0.00000
   61 Torsion                  2     1     7    11         180.00000    0.00000
   62 Torsion                  2     3     4     5           0.00000    0.00000
   63 Torsion                  2     3     4    18         180.00000    0.00000
   64 Torsion                  2    10     9     8           0.00000    0.00000
   65 Torsion                  2    10     9    13         180.00000    0.00000
   66 Torsion                  3     2     1     6           0.00000    0.00000
   67 Torsion                  3     2     1     7         180.00000    0.00000
   68 Torsion                  3     2    10     9         180.00000    0.00000
   69 Torsion                  3     2    10    14           0.00000    0.00000
   70 Torsion                  3     4     5     6           0.00000    0.00000
   71 Torsion                  3     4     5    17         180.00000    0.00000
   72 Torsion                  4     3     2    10         180.00000    0.00000
   73 Torsion                  4     5     6    15         180.00000    0.00000
   74 Torsion                  5     4     3    16         180.00000    0.00000
   75 Torsion                  5     6     1     7         180.00000    0.00000
   76 Torsion                  6     1     2    10         180.00000    0.00000
   77 Torsion                  6     1     7     8         180.00000    0.00000
   78 Torsion                  6     1     7    11           0.00000    0.00000
   79 Torsion                  6     5     4    18         180.00000    0.00000
   80 Torsion                  7     1     2    10           0.00000    0.00000
   81 Torsion                  7     1     6    15           0.00000    0.00000
   82 Torsion                  7     8     9    10          -0.00000    0.00000
   83 Torsion                  7     8     9    13         180.00000    0.00000
   84 Torsion                  8     9    10    14         180.00000    0.00000
   85 Torsion                  9     8     7    11         180.00000    0.00000
   86 Torsion                 10     2     3    16           0.00000    0.00000
   87 Torsion                 10     9     8    12         180.00000    0.00000
   88 Torsion                 11     7     8    12           0.00000    0.00000
   89 Torsion                 12     8     9    13           0.00000    0.00000
   90 Torsion                 13     9    10    14           0.00000    0.00000
   91 Torsion                 15     6     5    17          -0.00000    0.00000
   92 Torsion                 16     3     4    18           0.00000    0.00000
   93 Torsion                 17     5     4    18          -0.00000    0.00000

  no constraints, skipping    0.0000000000000000     
  no constraints, skipping    0.0000000000000000     
  no constraints, skipping    0.0000000000000000     
  no constraints, skipping    0.0000000000000000     
  no constraints, skipping    0.0000000000000000     
  no constraints, skipping    0.0000000000000000     
  no constraints, skipping    0.0000000000000000     
  no constraints, skipping    0.0000000000000000     
                                 NWChem SCF Module
                                 -----------------



  ao basis        = "ao basis"
  functions       =    58
  atoms           =    18
  closed shells   =    34
  open shells     =     0
  charge          =   0.00
  wavefunction    = RHF 
  input vectors   = ./napthalene.movecs
  output vectors  = ./napthalene.movecs
  use symmetry    = T
  symmetry adapt  = T


 Forming initial guess at      10.7s


 Starting SCF solution at      10.7s

 Local filesystem for scratch_dir


       Final RHF  results 
       ------------------ 

         Total SCF energy =   -378.686699982787
      One-electron energy =  -1424.976965865132
      Two-electron energy =    587.193356753186
 Nuclear repulsion energy =    459.096909129159

        Time for solution =      0.6s


 Line search: 
     step= 1.00 grad=-9.6D-04 hess= 3.2D-04 energy=   -378.686700 mode=downhill
 new step= 1.49                   predicted energy=   -378.686778
  no constraints, skipping    0.0000000000000000     
  no constraints, skipping    0.0000000000000000     
  no constraints, skipping    0.0000000000000000     
  no constraints, skipping    0.0000000000000000     
  no constraints, skipping    0.0000000000000000     
  no constraints, skipping    0.0000000000000000     
  no constraints, skipping    0.0000000000000000     
  no constraints, skipping    0.0000000000000000     

          --------
          Step   2
          --------


                         Geometry "geometry" -> "geometry"
                         ---------------------------------

 Output coordinates in angstroms (scale by  1.889725989 to convert to a.u.)

  No.       Tag          Charge          X              Y              Z
 ---- ---------------- ---------- -------------- -------------- --------------
    1 C                    6.0000     0.00000000     0.70291943     0.00239399
    2 C                    6.0000     0.00000000    -0.70291943     0.00239399
    3 C                    6.0000     0.00000000    -1.39534698     1.25382451
    4 C                    6.0000     0.00000000    -0.71100657     2.42329704
    5 C                    6.0000     0.00000000     0.71100657     2.42329704
    6 C                    6.0000     0.00000000     1.39534698     1.25382451
    7 C                    6.0000     0.00000000     1.39488592    -1.25671203
    8 C                    6.0000     0.00000000     0.71436567    -2.42267057
    9 C                    6.0000     0.00000000    -0.71436567    -2.42267057
   10 C                    6.0000     0.00000000    -1.39488592    -1.25671203
   11 H                    1.0000     0.00000000     2.47775288    -1.24788670
   12 H                    1.0000     0.00000000     1.24002141    -3.36914601
   13 H                    1.0000     0.00000000    -1.24002141    -3.36914601
   14 H                    1.0000     0.00000000    -2.47775288    -1.24788670
   15 H                    1.0000     0.00000000     2.47722876     1.25004021
   16 H                    1.0000     0.00000000    -2.47722876     1.25004021
   17 H                    1.0000     0.00000000     1.24190859     3.36624191
   18 H                    1.0000     0.00000000    -1.24190859     3.36624191

      Atomic Mass 
      ----------- 

      C                 12.000000
      H                  1.007825


 Effective nuclear repulsion energy (a.u.)     458.7988589681

            Nuclear Dipole moment (a.u.) 
            ----------------------------
        X                 Y               Z
 ---------------- ---------------- ----------------
     0.0000000000     0.0000000000     0.0001778976

      Symmetry information
      --------------------

 Group name             C2v       
 Group number             16
 Group order               4
 No. of unique centers     9

      Symmetry unique atoms

     1    3    4    7    8   11   12   15   17

                                 NWChem SCF Module
                                 -----------------



  ao basis        = "ao basis"
  functions       =    58
  atoms           =    18
  closed shells   =    34
  open shells     =     0
  charge          =   0.00
  wavefunction    = RHF 
  input vectors   = ./napthalene.movecs
  output vectors  = ./napthalene.movecs
  use symmetry    = T
  symmetry adapt  = T


 Forming initial guess at      12.8s


 Starting SCF solution at      12.8s

 Local filesystem for scratch_dir


       Final RHF  results 
       ------------------ 

         Total SCF energy =   -378.686781315389
      One-electron energy =  -1424.391756842904
      Two-electron energy =    586.906116559426
 Nuclear repulsion energy =    458.798858968089

        Time for solution =      0.6s


                              NWChem Gradients Module
                              -----------------------



                         RHF ENERGY GRADIENTS

    atom               coordinates                        gradient
                 x          y          z           x          y          z
   1 C       0.000000   1.328325   0.004524    0.000000   0.000446   0.002318
   2 C       0.000000  -1.328325   0.004524    0.000000  -0.000446   0.002318
   3 C       0.000000  -2.636823   2.369385    0.000000  -0.001470   0.000003
   4 C       0.000000  -1.343608   4.579367    0.000000   0.002132   0.001043
   5 C       0.000000   1.343608   4.579367    0.000000  -0.002132   0.001043
   6 C       0.000000   2.636823   2.369385    0.000000   0.001470   0.000003
   7 C       0.000000   2.635952  -2.374841    0.000000  -0.000875  -0.004357
   8 C       0.000000   1.349955  -4.578184    0.000000   0.002070   0.001303
   9 C       0.000000  -1.349955  -4.578184    0.000000  -0.002070   0.001303
  10 C       0.000000  -2.635952  -2.374841    0.000000   0.000875  -0.004357
  11 H       0.000000   4.682274  -2.358164    0.000000   0.000078   0.000007
  12 H       0.000000   2.343301  -6.366763    0.000000  -0.000056  -0.000102
  13 H       0.000000  -2.343301  -6.366763    0.000000   0.000056  -0.000102
  14 H       0.000000  -4.682274  -2.358164    0.000000  -0.000078   0.000007
  15 H       0.000000   4.681284   2.362233    0.000000  -0.000768   0.000462
  16 H       0.000000  -4.681284   2.362233   -0.000000   0.000768   0.000462
  17 H       0.000000   2.346867   6.361275    0.000000   0.000288  -0.000676
  18 H       0.000000  -2.346867   6.361275    0.000000  -0.000288  -0.000676

  no constraints, skipping    0.0000000000000000     

  Step       Energy      Delta E   Gmax     Grms     Xrms     Xmax   Walltime
  ---- ---------------- -------- -------- -------- -------- -------- --------
@    2    -378.68678132 -7.2D-04  0.00271  0.00057  0.00906  0.02060     14.4
                                                                    



                                Z-matrix (autoz)
                                -------- 

 Units are Angstrom for bonds and degrees for angles

      Type          Name      I     J     K     L     M      Value     Gradient
      ----------- --------  ----- ----- ----- ----- ----- ---------- ----------
    1 Stretch                  1     2                       1.40584    0.00023
    2 Stretch                  1     6                       1.43022    0.00067
    3 Stretch                  1     7                       1.43672    0.00271
    4 Stretch                  2     3                       1.43022    0.00067
    5 Stretch                  2    10                       1.43672    0.00271
    6 Stretch                  3     4                       1.35499    0.00073
    7 Stretch                  3    16                       1.08189   -0.00077
    8 Stretch                  4     5                       1.42201   -0.00103
    9 Stretch                  4    18                       1.08213   -0.00045
   10 Stretch                  5     6                       1.35499    0.00073
   11 Stretch                  5    17                       1.08213   -0.00045
   12 Stretch                  6    15                       1.08189   -0.00077
   13 Stretch                  7     8                       1.35002   -0.00139
   14 Stretch                  7    11                       1.08290    0.00008
   15 Stretch                  8     9                       1.42873    0.00132
   16 Stretch                  8    12                       1.08265    0.00006
   17 Stretch                  9    10                       1.35002   -0.00139
   18 Stretch                  9    13                       1.08265    0.00006
   19 Stretch                 10    14                       1.08290    0.00008
   20 Bend                     1     2     3               118.95614   -0.00018
   21 Bend                     1     2    10               118.79186   -0.00078
   22 Bend                     1     6     5               120.70896   -0.00012
   23 Bend                     1     6    15               118.75573    0.00031
   24 Bend                     1     7     8               120.93785    0.00037
   25 Bend                     1     7    11               118.32491   -0.00019
   26 Bend                     2     1     6               118.95614   -0.00018
   27 Bend                     2     1     7               118.79186   -0.00078
   28 Bend                     2     3     4               120.70896   -0.00012
   29 Bend                     2     3    16               118.75573    0.00031
   30 Bend                     2    10     9               120.93785    0.00037
   31 Bend                     2    10    14               118.32491   -0.00019
   32 Bend                     3     2    10               122.25200    0.00096
   33 Bend                     3     4     5               120.33490    0.00030
   34 Bend                     3     4    18               120.28448   -0.00047
   35 Bend                     4     3    16               120.53531   -0.00019
   36 Bend                     4     5     6               120.33490    0.00030
   37 Bend                     4     5    17               119.38062    0.00016
   38 Bend                     5     4    18               119.38062    0.00016
   39 Bend                     5     6    15               120.53531   -0.00019
   40 Bend                     6     1     7               122.25200    0.00096
   41 Bend                     6     5    17               120.28448   -0.00047
   42 Bend                     7     8     9               120.27029    0.00041
   43 Bend                     7     8    12               120.68269   -0.00015
   44 Bend                     8     7    11               120.73723   -0.00018
   45 Bend                     8     9    10               120.27029    0.00041
   46 Bend                     8     9    13               119.04702   -0.00026
   47 Bend                     9     8    12               119.04702   -0.00026
   48 Bend                     9    10    14               120.73723   -0.00018
   49 Bend                    10     9    13               120.68269   -0.00015
   50 Torsion                  1     2     3     4           0.00000   -0.00000
   51 Torsion                  1     2     3    16         180.00000   -0.00000
   52 Torsion                  1     2    10     9           0.00000   -0.00000
   53 Torsion                  1     2    10    14         180.00000   -0.00000
   54 Torsion                  1     6     5     4           0.00000   -0.00000
   55 Torsion                  1     6     5    17         180.00000   -0.00000
   56 Torsion                  1     7     8     9           0.00000   -0.00000
   57 Torsion                  1     7     8    12         180.00000    0.00000
   58 Torsion                  2     1     6     5           0.00000    0.00000
   59 Torsion                  2     1     6    15         180.00000    0.00000
   60 Torsion                  2     1     7     8          -0.00000   -0.00000
   61 Torsion                  2     1     7    11         180.00000   -0.00000
   62 Torsion                  2     3     4     5           0.00000    0.00000
   63 Torsion                  2     3     4    18         180.00000    0.00000
   64 Torsion                  2    10     9     8           0.00000   -0.00000
   65 Torsion                  2    10     9    13         180.00000   -0.00000
   66 Torsion                  3     2     1     6           0.00000    0.00000
   67 Torsion                  3     2     1     7         180.00000    0.00000
   68 Torsion                  3     2    10     9         180.00000   -0.00000
   69 Torsion                  3     2    10    14           0.00000   -0.00000
   70 Torsion                  3     4     5     6           0.00000    0.00000
   71 Torsion                  3     4     5    17         180.00000   -0.00000
   72 Torsion                  4     3     2    10         180.00000   -0.00000
   73 Torsion                  4     5     6    15         180.00000   -0.00000
   74 Torsion                  5     4     3    16         180.00000    0.00000
   75 Torsion                  5     6     1     7         180.00000    0.00000
   76 Torsion                  6     1     2    10         180.00000    0.00000
   77 Torsion                  6     1     7     8         180.00000   -0.00000
   78 Torsion                  6     1     7    11           0.00000   -0.00000
   79 Torsion                  6     5     4    18         180.00000    0.00000
   80 Torsion                  7     1     2    10           0.00000    0.00000
   81 Torsion                  7     1     6    15           0.00000   -0.00000
   82 Torsion                  7     8     9    10          -0.00000    0.00000
   83 Torsion                  7     8     9    13         180.00000    0.00000
   84 Torsion                  8     9    10    14         180.00000   -0.00000
   85 Torsion                  9     8     7    11         180.00000   -0.00000
   86 Torsion                 10     2     3    16           0.00000   -0.00000
   87 Torsion                 10     9     8    12         180.00000    0.00000
   88 Torsion                 11     7     8    12           0.00000    0.00000
   89 Torsion                 12     8     9    13           0.00000    0.00000
   90 Torsion                 13     9    10    14           0.00000    0.00000
   91 Torsion                 15     6     5    17           0.00000   -0.00000
   92 Torsion                 16     3     4    18           0.00000    0.00000
   93 Torsion                 17     5     4    18          -0.00000    0.00000

  no constraints, skipping    0.0000000000000000     
  no constraints, skipping    0.0000000000000000     
  no constraints, skipping    0.0000000000000000     
  no constraints, skipping    0.0000000000000000     
  no constraints, skipping    0.0000000000000000     
  no constraints, skipping    0.0000000000000000     
  no constraints, skipping    0.0000000000000000     
  no constraints, skipping    0.0000000000000000     
                                 NWChem SCF Module
                                 -----------------



  ao basis        = "ao basis"
  functions       =    58
  atoms           =    18
  closed shells   =    34
  open shells     =     0
  charge          =   0.00
  wavefunction    = RHF 
  input vectors   = ./napthalene.movecs
  output vectors  = ./napthalene.movecs
  use symmetry    = T
  symmetry adapt  = T


 Forming initial guess at      15.9s


 Starting SCF solution at      15.9s

 Local filesystem for scratch_dir


       Final RHF  results 
       ------------------ 

         Total SCF energy =   -378.686837684747
      One-electron energy =  -1424.830995287879
      Two-electron energy =    587.124936848121
 Nuclear repulsion energy =    459.019220755010

        Time for solution =      0.6s


 Line search: 
     step= 1.00 grad=-1.0D-04 hess= 4.7D-05 energy=   -378.686838 mode=downhill
 new step= 1.10                   predicted energy=   -378.686838
  no constraints, skipping    0.0000000000000000     
  no constraints, skipping    0.0000000000000000     
  no constraints, skipping    0.0000000000000000     
  no constraints, skipping    0.0000000000000000     
  no constraints, skipping    0.0000000000000000     
  no constraints, skipping    0.0000000000000000     
  no constraints, skipping    0.0000000000000000     
  no constraints, skipping    0.0000000000000000     

          --------
          Step   3
          --------


                         Geometry "geometry" -> "geometry"
                         ---------------------------------

 Output coordinates in angstroms (scale by  1.889725989 to convert to a.u.)

  No.       Tag          Charge          X              Y              Z
 ---- ---------------- ---------- -------------- -------------- --------------
    1 C                    6.0000     0.00000000     0.70166827     0.00052470
    2 C                    6.0000     0.00000000    -0.70166827     0.00052470
    3 C                    6.0000     0.00000000    -1.39532289     1.25164641
    4 C                    6.0000     0.00000000    -0.71250891     2.42046853
    5 C                    6.0000     0.00000000     0.71250891     2.42046853
    6 C                    6.0000     0.00000000     1.39532289     1.25164641
    7 C                    6.0000     0.00000000     1.39604112    -1.25305407
    8 C                    6.0000     0.00000000     0.71403498    -2.42029162
    9 C                    6.0000     0.00000000    -0.71403498    -2.42029162
   10 C                    6.0000     0.00000000    -1.39604112    -1.25305407
   11 H                    1.0000     0.00000000     2.47880315    -1.24226931
   12 H                    1.0000     0.00000000     1.23943924    -3.36679922
   13 H                    1.0000     0.00000000    -1.23943924    -3.36679922
   14 H                    1.0000     0.00000000    -2.47880315    -1.24226931
   15 H                    1.0000     0.00000000     2.47837636     1.24318852
   16 H                    1.0000     0.00000000    -2.47837636     1.24318852
   17 H                    1.0000     0.00000000     1.24013674     3.36596840
   18 H                    1.0000     0.00000000    -1.24013674     3.36596840

      Atomic Mass 
      ----------- 

      C                 12.000000
      H                  1.007825


 Effective nuclear repulsion energy (a.u.)     459.0413586974

            Nuclear Dipole moment (a.u.) 
            ----------------------------
        X                 Y               Z
 ---------------- ---------------- ----------------
     0.0000000000     0.0000000000    -0.0156765629

      Symmetry information
      --------------------

 Group name             C2v       
 Group number             16
 Group order               4
 No. of unique centers     9

      Symmetry unique atoms

     1    3    4    7    8   11   12   15   17

                                 NWChem SCF Module
                                 -----------------



  ao basis        = "ao basis"
  functions       =    58
  atoms           =    18
  closed shells   =    34
  open shells     =     0
  charge          =   0.00
  wavefunction    = RHF 
  input vectors   = ./napthalene.movecs
  output vectors  = ./napthalene.movecs
  use symmetry    = T
  symmetry adapt  = T


 Forming initial guess at      17.9s


 Starting SCF solution at      17.9s

 Local filesystem for scratch_dir


       Final RHF  results 
       ------------------ 

         Total SCF energy =   -378.686838129830
      One-electron energy =  -1424.875113325342
      Two-electron energy =    587.146916498064
 Nuclear repulsion energy =    459.041358697449

        Time for solution =      0.5s


                              NWChem Gradients Module
                              -----------------------



                         RHF ENERGY GRADIENTS

    atom               coordinates                        gradient
                 x          y          z           x          y          z
   1 C       0.000000   1.325961   0.000992    0.000000  -0.001499   0.000764
   2 C       0.000000  -1.325961   0.000992    0.000000   0.001499   0.000764
   3 C       0.000000  -2.636778   2.365269    0.000000   0.000116  -0.000559
   4 C       0.000000  -1.346447   4.574022    0.000000   0.000265  -0.000035
   5 C       0.000000   1.346447   4.574022    0.000000  -0.000265  -0.000035
   6 C       0.000000   2.636778   2.365269    0.000000  -0.000116  -0.000559
   7 C       0.000000   2.638135  -2.367929    0.000000   0.000098  -0.001004
   8 C       0.000000   1.349330  -4.573688    0.000000   0.001656   0.000533
   9 C       0.000000  -1.349330  -4.573688    0.000000  -0.001656   0.000533
  10 C       0.000000  -2.638135  -2.367929    0.000000  -0.000098  -0.001004
  11 H       0.000000   4.684259  -2.347549    0.000000   0.000097   0.000215
  12 H       0.000000   2.342201  -6.362328    0.000000  -0.000090   0.000015
  13 H       0.000000  -2.342201  -6.362328    0.000000   0.000090   0.000015
  14 H       0.000000  -4.684259  -2.347549    0.000000  -0.000097   0.000215
  15 H       0.000000   4.683452   2.349286    0.000000   0.000361   0.000011
  16 H       0.000000  -4.683452   2.349286   -0.000000  -0.000361   0.000011
  17 H       0.000000   2.343519   6.360758    0.000000   0.000165   0.000061
  18 H       0.000000  -2.343519   6.360758    0.000000  -0.000165   0.000061

  no constraints, skipping    0.0000000000000000     

  Step       Energy      Delta E   Gmax     Grms     Xrms     Xmax   Walltime
  ---- ---------------- -------- -------- -------- -------- -------- --------
@    3    -378.68683813 -5.7D-05  0.00121  0.00022  0.00416  0.01295     19.7
                                              ok                    



                                Z-matrix (autoz)
                                -------- 

 Units are Angstrom for bonds and degrees for angles

      Type          Name      I     J     K     L     M      Value     Gradient
      ----------- --------  ----- ----- ----- ----- ----- ---------- ----------
    1 Stretch                  1     2                       1.40334   -0.00067
    2 Stretch                  1     6                       1.43055   -0.00032
    3 Stretch                  1     7                       1.43304    0.00048
    4 Stretch                  2     3                       1.43055   -0.00032
    5 Stretch                  2    10                       1.43304    0.00048
    6 Stretch                  3     4                       1.35365    0.00001
    7 Stretch                  3    16                       1.08309    0.00036
    8 Stretch                  4     5                       1.42502   -0.00013
    9 Stretch                  4    18                       1.08276    0.00013
   10 Stretch                  5     6                       1.35365    0.00001
   11 Stretch                  5    17                       1.08276    0.00013
   12 Stretch                  6    15                       1.08309    0.00036
   13 Stretch                  7     8                       1.35188   -0.00065
   14 Stretch                  7    11                       1.08282    0.00010
   15 Stretch                  8     9                       1.42807    0.00121
   16 Stretch                  8    12                       1.08256   -0.00006
   17 Stretch                  9    10                       1.35188   -0.00065
   18 Stretch                  9    13                       1.08256   -0.00006
   19 Stretch                 10    14                       1.08282    0.00010
   20 Bend                     1     2     3               119.00513    0.00021
   21 Bend                     1     2    10               118.98261    0.00018
   22 Bend                     1     6     5               120.70183   -0.00007
   23 Bend                     1     6    15               118.55770    0.00004
   24 Bend                     1     7     8               120.72004   -0.00005
   25 Bend                     1     7    11               118.41194   -0.00009
   26 Bend                     2     1     6               119.00513    0.00021
   27 Bend                     2     1     7               118.98261    0.00018
   28 Bend                     2     3     4               120.70183   -0.00007
   29 Bend                     2     3    16               118.55770    0.00004
   30 Bend                     2    10     9               120.72004   -0.00005
   31 Bend                     2    10    14               118.41194   -0.00009
   32 Bend                     3     2    10               122.01225   -0.00039
   33 Bend                     3     4     5               120.29304   -0.00014
   34 Bend                     3     4    18               120.54365    0.00001
   35 Bend                     4     3    16               120.74047    0.00003
   36 Bend                     4     5     6               120.29304   -0.00014
   37 Bend                     4     5    17               119.16331    0.00013
   38 Bend                     5     4    18               119.16331    0.00013
   39 Bend                     5     6    15               120.74047    0.00003
   40 Bend                     6     1     7               122.01225   -0.00039
   41 Bend                     6     5    17               120.54365    0.00001
   42 Bend                     7     8     9               120.29735   -0.00013
   43 Bend                     7     8    12               120.66809    0.00010
   44 Bend                     8     7    11               120.86802    0.00014
   45 Bend                     8     9    10               120.29735   -0.00013
   46 Bend                     8     9    13               119.03456    0.00003
   47 Bend                     9     8    12               119.03456    0.00003
   48 Bend                     9    10    14               120.86802    0.00014
   49 Bend                    10     9    13               120.66809    0.00010
   50 Torsion                  1     2     3     4           0.00000   -0.00000
   51 Torsion                  1     2     3    16         180.00000   -0.00000
   52 Torsion                  1     2    10     9           0.00000   -0.00000
   53 Torsion                  1     2    10    14         180.00000   -0.00000
   54 Torsion                  1     6     5     4           0.00000   -0.00000
   55 Torsion                  1     6     5    17         180.00000   -0.00000
   56 Torsion                  1     7     8     9           0.00000   -0.00000
   57 Torsion                  1     7     8    12         180.00000    0.00000
   58 Torsion                  2     1     6     5           0.00000    0.00000
   59 Torsion                  2     1     6    15         180.00000    0.00000
   60 Torsion                  2     1     7     8          -0.00000   -0.00000
   61 Torsion                  2     1     7    11         180.00000   -0.00000
   62 Torsion                  2     3     4     5           0.00000    0.00000
   63 Torsion                  2     3     4    18         180.00000    0.00000
   64 Torsion                  2    10     9     8           0.00000   -0.00000
   65 Torsion                  2    10     9    13         180.00000   -0.00000
   66 Torsion                  3     2     1     6           0.00000    0.00000
   67 Torsion                  3     2     1     7         180.00000    0.00000
   68 Torsion                  3     2    10     9         180.00000   -0.00000
   69 Torsion                  3     2    10    14           0.00000   -0.00000
   70 Torsion                  3     4     5     6           0.00000    0.00000
   71 Torsion                  3     4     5    17         180.00000   -0.00000
   72 Torsion                  4     3     2    10         180.00000   -0.00000
   73 Torsion                  4     5     6    15         180.00000   -0.00000
   74 Torsion                  5     4     3    16         180.00000    0.00000
   75 Torsion                  5     6     1     7         180.00000    0.00000
   76 Torsion                  6     1     2    10         180.00000    0.00000
   77 Torsion                  6     1     7     8         180.00000   -0.00000
   78 Torsion                  6     1     7    11           0.00000   -0.00000
   79 Torsion                  6     5     4    18         180.00000    0.00000
   80 Torsion                  7     1     2    10           0.00000    0.00000
   81 Torsion                  7     1     6    15           0.00000   -0.00000
   82 Torsion                  7     8     9    10          -0.00000    0.00000
[...]
          33     0.16227    -0.07685     0.09499     0.11259     0.00238     0.00228
          34     0.00000     0.00000     0.00000     0.00000     0.00000     0.00000
          35     0.13568     0.06936    -0.13490    -0.09442    -0.16682    -0.16653
          36     0.12024     0.03580    -0.00115     0.00966     0.29987     0.29957
          37     0.00000     0.00000     0.00000     0.00000     0.00000     0.00000
          38    -0.13568    -0.06935    -0.13490    -0.09442    -0.16682    -0.16653
          39     0.12024     0.03580     0.00115    -0.00966    -0.29987    -0.29957
          40     0.00000     0.00000     0.00000     0.00000     0.00000     0.00000
          41    -0.04928    -0.06341    -0.04333    -0.02435     0.33193     0.33182
          42     0.16227    -0.07685    -0.09499    -0.11259    -0.00238    -0.00228
          43     0.00000     0.00000     0.00000     0.00000     0.00000     0.00000
          44    -0.04931     0.06337    -0.04338     0.02410     0.33290    -0.33333
          45     0.16249     0.07685    -0.09560     0.11221    -0.00238     0.00230
          46     0.00000     0.00000     0.00000     0.00000     0.00000     0.00000
          47     0.04931    -0.06337    -0.04338     0.02410     0.33290    -0.33333
          48     0.16249     0.07685     0.09560    -0.11221     0.00238    -0.00230
          49     0.00000     0.00000     0.00000     0.00000     0.00000     0.00000
          50    -0.13576     0.06931    -0.13524     0.09375    -0.16624     0.16600
          51     0.12040    -0.03582     0.00110     0.00967    -0.29875     0.29854
          52     0.00000     0.00000     0.00000     0.00000     0.00000     0.00000
          53     0.13576    -0.06931    -0.13524     0.09375    -0.16624     0.16600
          54     0.12040    -0.03582    -0.00110    -0.00967     0.29875    -0.29854

                   49          50          51          52          53          54
 
 P.Frequency     3719.19     3719.91     3733.81     3734.10     3742.39     3742.60
 
           1     0.00000     0.00000     0.00000     0.00000     0.00000     0.00000
           2     0.00165    -0.00004     0.00173     0.00004     0.00106     0.00007
           3     0.00007     0.00265     0.00005    -0.00248    -0.00017     0.00230
           4     0.00000     0.00000     0.00000     0.00000     0.00000     0.00000
           5    -0.00165     0.00004     0.00173     0.00004    -0.00106    -0.00007
           6     0.00007     0.00265    -0.00005     0.00248    -0.00017     0.00230
           7     0.00000     0.00000     0.00000     0.00000     0.00000     0.00000
           8     0.03642     0.03398    -0.03213     0.03079     0.02223     0.02691
           9    -0.00061    -0.00065    -0.00293     0.00264     0.00277     0.00311
          10     0.00000     0.00000     0.00000     0.00000     0.00000     0.00000
          11    -0.01349    -0.01345    -0.01149     0.01113     0.01662     0.01878
          12     0.01873     0.01869     0.02909    -0.02798    -0.03056    -0.03485
          13     0.00000     0.00000     0.00000     0.00000     0.00000     0.00000
          14     0.01349     0.01345    -0.01149     0.01113    -0.01662    -0.01878
          15     0.01873     0.01869    -0.02909     0.02798    -0.03056    -0.03485
          16     0.00000     0.00000     0.00000     0.00000     0.00000     0.00000
          17    -0.03642    -0.03398    -0.03213     0.03079    -0.02223    -0.02691
          18    -0.00061    -0.00065     0.00293    -0.00264     0.00277     0.00311
          19     0.00000     0.00000     0.00000     0.00000     0.00000     0.00000
          20    -0.03465     0.03559    -0.03097    -0.03217    -0.02605     0.02352
          21     0.00059    -0.00069    -0.00282    -0.00276    -0.00319     0.00268
          22     0.00000     0.00000     0.00000     0.00000     0.00000     0.00000
          23     0.01289    -0.01415    -0.01097    -0.01153    -0.01911     0.01612
          24    -0.01794     0.01970     0.02783     0.02905     0.03521    -0.02999
          25     0.00000     0.00000     0.00000     0.00000     0.00000     0.00000
          26    -0.01289     0.01415    -0.01097    -0.01153     0.01911    -0.01612
          27    -0.01793     0.01970    -0.02783    -0.02905     0.03521    -0.02999
          28     0.00000     0.00000     0.00000     0.00000     0.00000     0.00000
          29     0.03465    -0.03559    -0.03097    -0.03217     0.02605    -0.02352
          30     0.00059    -0.00069     0.00282     0.00276    -0.00319     0.00268
          31     0.00000     0.00000     0.00000     0.00000     0.00000     0.00000
          32     0.39146    -0.40278     0.33359     0.34706     0.27388    -0.24757
          33     0.00240    -0.00282     0.00332     0.00375     0.00316    -0.00307
          34     0.00000     0.00000     0.00000     0.00000     0.00000     0.00000
          35    -0.12298     0.13476     0.15565     0.16240     0.20743    -0.17580
          36     0.21827    -0.23969    -0.28340    -0.29527    -0.37231     0.31530
          37     0.00000     0.00000     0.00000     0.00000     0.00000     0.00000
          38     0.12298    -0.13476     0.15564     0.16240    -0.20743     0.17581
          39     0.21827    -0.23968     0.28340     0.29526    -0.37231     0.31531
          40     0.00000     0.00000     0.00000     0.00000     0.00000     0.00000
          41    -0.39146     0.40278     0.33359     0.34705    -0.27389     0.24757
          42     0.00240    -0.00282    -0.00332    -0.00375     0.00316    -0.00307
          43     0.00000     0.00000     0.00000     0.00000     0.00000     0.00000
          44     0.41136     0.38451     0.34602    -0.33219     0.23365     0.28304
          45    -0.00254    -0.00271    -0.00346     0.00360    -0.00267    -0.00349
          46     0.00000     0.00000     0.00000     0.00000     0.00000     0.00000
          47    -0.41136    -0.38451     0.34602    -0.33219    -0.23365    -0.28304
          48    -0.00254    -0.00271     0.00346    -0.00360    -0.00267    -0.00349
          49     0.00000     0.00000     0.00000     0.00000     0.00000     0.00000
          50    -0.12858    -0.12797     0.16279    -0.15653     0.18025     0.20457
          51    -0.22818    -0.22758     0.29632    -0.28451     0.32350     0.36685
          52     0.00000     0.00000     0.00000     0.00000     0.00000     0.00000
          53     0.12858     0.12797     0.16279    -0.15653    -0.18025    -0.20457
          54    -0.22818    -0.22758    -0.29632     0.28451     0.32350     0.36685



 ----------------------------------------------------------------------------
 Normal Eigenvalue ||    Projected Derivative Dipole Moments (debye/angs)
  Mode   [cm**-1]  ||      [d/dqX]             [d/dqY]           [d/dqZ]
 ------ ---------- || ------------------ ------------------ -----------------
    1       -0.000 ||       0.000               0.000            -0.000
    2       -0.000 ||       0.000               0.000            -0.000
    3       -0.000 ||      -0.000               0.000             0.000
    4        0.000 ||      -0.000               0.000            -0.000
    5        0.000 ||       0.000              -0.000            -0.000
    6        0.000 ||      -0.000              -0.000             0.000
    7      193.430 ||       0.112               0.000            -0.000
    8      217.355 ||       0.000              -0.000             0.000
    9      405.307 ||      -0.000               0.110             0.000
   10      446.795 ||       0.000              -0.000            -0.000
   11      541.912 ||       0.000               0.000            -0.000
   12      560.847 ||      -0.304               0.000            -0.000
   13      574.802 ||      -0.000              -0.000            -0.000
   14      581.124 ||       0.000               0.000            -0.000
   15      706.208 ||      -0.000               0.000            -0.338
   16      734.128 ||      -0.000              -0.000             0.000
   17      864.768 ||      -0.000              -0.000             0.000
   18      885.896 ||       0.000               0.000            -0.000
   19      907.766 ||       0.000              -0.266             0.000
   20      920.744 ||       0.000              -0.000            -0.000
   21      946.348 ||       0.868               0.000            -0.000
   22     1023.361 ||      -0.000               0.000            -0.000
   23     1058.526 ||      -0.000               0.000            -0.000
   24     1075.909 ||      -0.000               0.000             0.000
   25     1099.756 ||       0.000              -0.000             0.141
   26     1177.992 ||       0.000              -0.000             0.000
   27     1186.952 ||       0.000              -0.000            -0.000
   28     1190.475 ||      -0.139               0.000             0.000
   29     1202.911 ||       0.000               0.000            -0.000
   30     1205.269 ||       0.000               0.000            -0.000
   31     1252.275 ||       0.000              -0.000            -0.129
   32     1319.904 ||      -0.000              -0.088            -0.000
   33     1357.455 ||       0.000               0.000             0.000
   34     1358.369 ||      -0.000              -0.000             0.000
   35     1380.146 ||       0.000               0.000             0.012
   36     1460.030 ||       0.000               0.009             0.000
   37     1462.223 ||       0.000              -0.371            -0.000
   38     1548.872 ||      -0.000               0.000             0.002
   39     1564.348 ||      -0.000               0.000             0.264
   40     1636.574 ||      -0.000               0.337            -0.000
   41     1733.036 ||      -0.000              -0.000            -0.000
   42     1740.030 ||       0.000               0.000            -0.000
   43     1801.192 ||      -0.000               0.000             0.457
   44     1921.064 ||      -0.000               0.000             0.000
   45     1958.001 ||       0.000               0.463            -0.000
   46     1980.623 ||       0.000              -0.001             0.000
   47     3706.024 ||      -0.000               0.546            -0.000
   48     3710.549 ||      -0.000              -0.000            -0.000
   49     3719.186 ||       0.000              -0.000             0.017
   50     3719.912 ||       0.000              -0.000            -0.755
   51     3733.815 ||       0.000               0.328            -0.000
   52     3734.099 ||      -0.000               0.007            -0.000
   53     3742.386 ||      -0.000              -0.000            -0.029
   54     3742.603 ||       0.000               0.000             0.421
 ----------------------------------------------------------------------------



  
  
 ----------------------------------------------------------------------------
 Normal Eigenvalue ||           Projected Infra Red Intensities
  Mode   [cm**-1]  || [atomic units] [(debye/angs)**2] [(KM/mol)] [arbitrary]
 ------ ---------- || -------------- ----------------- ---------- -----------
    1       -0.000 ||    0.000000           0.000         0.000       0.000
    2       -0.000 ||    0.000000           0.000         0.000       0.000
    3       -0.000 ||    0.000000           0.000         0.000       0.000
    4        0.000 ||    0.000000           0.000         0.000       0.000
    5        0.000 ||    0.000000           0.000         0.000       0.000
    6        0.000 ||    0.000000           0.000         0.000       0.000
    7      193.430 ||    0.000546           0.013         0.532       2.256
    8      217.355 ||    0.000000           0.000         0.000       0.000
    9      405.307 ||    0.000528           0.012         0.515       2.182
   10      446.795 ||    0.000000           0.000         0.000       0.000
   11      541.912 ||    0.000000           0.000         0.000       0.000
   12      560.847 ||    0.004011           0.093         3.910      16.565
   13      574.802 ||    0.000000           0.000         0.000       0.000
   14      581.124 ||    0.000000           0.000         0.000       0.000
   15      706.208 ||    0.004943           0.114         4.819      20.411
   16      734.128 ||    0.000000           0.000         0.000       0.000
   17      864.768 ||    0.000000           0.000         0.000       0.000
   18      885.896 ||    0.000000           0.000         0.000       0.000
   19      907.766 ||    0.003062           0.071         2.985      12.643
   20      920.744 ||    0.000000           0.000         0.000       0.000
   21      946.348 ||    0.032651           0.753        31.830     134.833
   22     1023.361 ||    0.000000           0.000         0.000       0.000
   23     1058.526 ||    0.000000           0.000         0.000       0.000
   24     1075.909 ||    0.000000           0.000         0.000       0.000
   25     1099.756 ||    0.000856           0.020         0.835       3.535
   26     1177.992 ||    0.000000           0.000         0.000       0.000
   27     1186.952 ||    0.000000           0.000         0.000       0.000
   28     1190.475 ||    0.000838           0.019         0.817       3.459
   29     1202.911 ||    0.000000           0.000         0.000       0.000
   30     1205.269 ||    0.000000           0.000         0.000       0.000
   31     1252.275 ||    0.000726           0.017         0.707       2.997
   32     1319.904 ||    0.000333           0.008         0.325       1.375
   33     1357.455 ||    0.000000           0.000         0.000       0.000
   34     1358.369 ||    0.000000           0.000         0.000       0.000
   35     1380.146 ||    0.000007           0.000         0.006       0.027
   36     1460.030 ||    0.000004           0.000         0.004       0.016
   37     1462.223 ||    0.005958           0.137         5.808      24.602
   38     1548.872 ||    0.000000           0.000         0.000       0.001
   39     1564.348 ||    0.003017           0.070         2.941      12.457
   40     1636.574 ||    0.004914           0.113         4.790      20.292
   41     1733.036 ||    0.000000           0.000         0.000       0.000
   42     1740.030 ||    0.000000           0.000         0.000       0.000
   43     1801.192 ||    0.009055           0.209         8.828      37.394
   44     1921.064 ||    0.000000           0.000         0.000       0.000
   45     1958.001 ||    0.009297           0.214         9.063      38.393
   46     1980.623 ||    0.000000           0.000         0.000       0.000
   47     3706.024 ||    0.012909           0.298        12.584      53.306
   48     3710.549 ||    0.000000           0.000         0.000       0.000
   49     3719.186 ||    0.000013           0.000         0.013       0.053
   50     3719.912 ||    0.024711           0.570        24.090     102.045
   51     3733.815 ||    0.004668           0.108         4.551      19.277
   52     3734.099 ||    0.000002           0.000         0.002       0.010
   53     3742.386 ||    0.000037           0.001         0.036       0.151
   54     3742.603 ||    0.007681           0.177         7.488      31.718
 ----------------------------------------------------------------------------



 vib:animation  F

 Task  times  cpu:       15.1s     wall:       15.1s
 Summary of allocated global arrays
-----------------------------------
  No active global arrays


MA_summarize_allocated_blocks: starting scan ...
MA_summarize_allocated_blocks: scan completed: 0 heap blocks, 0 stack blocks
MA usage statistics:

	allocation statistics:
					      heap	     stack
					      ----	     -----
	current number of blocks	         0	         0
	maximum number of blocks	        26	        36
	current total bytes		         0	         0
	maximum total bytes		  25718200	  67245256
	maximum total K-bytes		     25719	     67246
	maximum total M-bytes		        26	        68


                                NWChem Input Module
                                -------------------




                                     CITATION
                                     --------
                Please cite the following reference when publishing
                           results obtained with NWChem:

          E. Apra, E. J. Bylaska, W. A. de Jong, N. Govind, K. Kowalski,
       T. P. Straatsma, M. Valiev, H. J. J. van Dam, Y. Alexeev, J. Anchell,
       V. Anisimov, F. W. Aquino, R. Atta-Fynn, J. Autschbach, N. P. Bauman,
     J. C. Becca, D. E. Bernholdt, K. Bhaskaran-Nair, S. Bogatko, P. Borowski,
         J. Boschen, J. Brabec, A. Bruner, E. Cauet, Y. Chen, G. N. Chuev,
      C. J. Cramer, J. Daily, M. J. O. Deegan, T. H. Dunning Jr., M. Dupuis,
   K. G. Dyall, G. I. Fann, S. A. Fischer, A. Fonari, H. Fruchtl, L. Gagliardi,
      J. Garza, N. Gawande, S. Ghosh, K. Glaesemann, A. W. Gotz, J. Hammond,
       V. Helms, E. D. Hermes, K. Hirao, S. Hirata, M. Jacquelin, L. Jensen,
   B. G. Johnson, H. Jonsson, R. A. Kendall, M. Klemm, R. Kobayashi, V. Konkov,
      S. Krishnamoorthy, M. Krishnan, Z. Lin, R. D. Lins, R. J. Littlefield,
      A. J. Logsdail, K. Lopata, W. Ma, A. V. Marenich, J. Martin del Campo,
   D. Mejia-Rodriguez, J. E. Moore, J. M. Mullin, T. Nakajima, D. R. Nascimento,
    J. A. Nichols, P. J. Nichols, J. Nieplocha, A. Otero-de-la-Roza, B. Palmer,
    A. Panyala, T. Pirojsirikul, B. Peng, R. Peverati, J. Pittner, L. Pollack,
   R. M. Richard, P. Sadayappan, G. C. Schatz, W. A. Shelton, D. W. Silverstein,
   D. M. A. Smith, T. A. Soares, D. Song, M. Swart, H. L. Taylor, G. S. Thomas,
            V. Tipparaju, D. G. Truhlar, K. Tsemekhman, T. Van Voorhis,
      A. Vazquez-Mayagoitia, P. Verma, O. Villa, A. Vishnu, K. D. Vogiatzis,
        D. Wang, J. H. Weare, M. J. Williamson, T. L. Windus, K. Wolinski,
        A. T. Wong, Q. Wu, C. Yang, Q. Yu, M. Zacharias, Z. Zhang, Y. Zhao,
                                and R. J. Harrison
                        "NWChem: Past, present, and future
                         J. Chem. Phys. 152, 184102 (2020)
                               doi:10.1063/5.0004997

                                      AUTHORS
                                      -------
        E. Apra, E. J. Bylaska, N. Govind, K. Kowalski, D. Mejia-Rodriguez,
        N. P. Bauman, A. Panyala, R. J. Harrison, M. Valiev, W. A. de Jong,
       T. P. Straatsma, H. J. J. van Dam, D. Wang, T. L. Windus, J. Hammond,
     J. Autschbach, R. de P. Soares, A. Kunitsa, K. Bhaskaran-Nair, J. Brabec,
      K. Lopata, S. A. Fischer, S. Krishnamoorthy, M. Jacquelin, R. Goswami,
       A. Woods, W. Ma, M. Klemm, O. Villa, Y. Chen, V. Anisimov, F. Aquino,
     S. Hirata, M. T. Hackler, E. Hermes, L. Jensen, J. E. Moore, J. C. Becca,
      V. Konjkov, T. Risthaus, M. Malagoli, A. Marenich, A. Otero-de-la-Roza,
        J. Mullin, P. Nichols, R. Peverati, J. Pittner, Y. Zhao, P.-D. Fan,
        A. Fonari, M. J. Williamson, J. R. Rehr, M. Dupuis, D. Silverstein,
    D. M. A. Smith, J. Nieplocha, V. Tipparaju, M. Krishnan, B. E. Van Kuiken,
        A. Vazquez-Mayagoitia, M. Swart, Q. Wu, T. Van Voorhis, A. A. Auer,
     M. Nooijen, L. D. Crosby, E. Brown, G. Cisneros, G. I. Fann, H. Fruchtl,
   J. Garza, K. Hirao, R. A. Kendall, J. A. Nichols, K. Tsemekhman, K. Wolinski,
     J. Anchell, D. E. Bernholdt, P. Borowski, T. Clark, D. Clerc, H. Dachsel,
   M. J. O. Deegan, K. Dyall, D. Elwood, E. Glendening, M. Gutowski, A. C. Hess,
         J. Jaffe, B. G. Johnson, J. Ju, R. Kobayashi, R. Kutteh, Z. Lin,
   R. Littlefield, X. Long, B. Meng, T. Nakajima, S. Niu, L. Pollack, M. Rosing,
   K. Glaesemann, G. Sandrone, M. Stave, H. Taylor, G. Thomas, J. H. van Lenthe,
                               A. T. Wong, Z. Zhang.

 Total times  cpu:       42.7s     wall:       42.7s
